+ 0.5 1 2 cbr 210 ------- 3 1.0 2.0 0 0
- 0.5 1 2 cbr 210 ------- 3 1.0 2.0 0 0
+ 0.5 0 1 tcp 40 ------- 1 0.0 3.0 0 1
- 0.5 0 1 tcp 40 ------- 1 0.0 3.0 0 1
+ 0.50024 1 2 cbr 210 ------- 3 1.0 2.0 1 2
- 0.50024 1 2 cbr 210 ------- 3 1.0 2.0 1 2
+ 0.50048 1 2 cbr 210 ------- 3 1.0 2.0 2 3
- 0.50048 1 2 cbr 210 ------- 3 1.0 2.0 2 3
+ 0.50072 1 2 cbr 210 ------- 3 1.0 2.0 3 4
- 0.50072 1 2 cbr 210 ------- 3 1.0 2.0 3 4
+ 0.50096 1 2 cbr 210 ------- 3 1.0 2.0 4 5
- 0.50096 1 2 cbr 210 ------- 3 1.0 2.0 4 5
+ 0.5012 1 2 cbr 210 ------- 3 1.0 2.0 5 6
- 0.5012 1 2 cbr 210 ------- 3 1.0 2.0 5 6
+ 0.50144 1 2 cbr 210 ------- 3 1.0 2.0 6 7
- 0.50144 1 2 cbr 210 ------- 3 1.0 2.0 6 7
+ 0.50168 1 2 cbr 210 ------- 3 1.0 2.0 7 8
- 0.50168 1 2 cbr 210 ------- 3 1.0 2.0 7 8
+ 0.50192 1 2 cbr 210 ------- 3 1.0 2.0 8 9
- 0.50192 1 2 cbr 210 ------- 3 1.0 2.0 8 9
+ 0.50216 1 2 cbr 210 ------- 3 1.0 2.0 9 10
- 0.50216 1 2 cbr 210 ------- 3 1.0 2.0 9 10
+ 0.5024 1 2 cbr 210 ------- 3 1.0 2.0 10 11
- 0.5024 1 2 cbr 210 ------- 3 1.0 2.0 10 11
+ 0.50264 1 2 cbr 210 ------- 3 1.0 2.0 11 12
- 0.50264 1 2 cbr 210 ------- 3 1.0 2.0 11 12
+ 0.50288 1 2 cbr 210 ------- 3 1.0 2.0 12 13
- 0.50288 1 2 cbr 210 ------- 3 1.0 2.0 12 13
+ 0.50312 1 2 cbr 210 ------- 3 1.0 2.0 13 14
- 0.50312 1 2 cbr 210 ------- 3 1.0 2.0 13 14
+ 0.50336 1 2 cbr 210 ------- 3 1.0 2.0 14 15
- 0.50336 1 2 cbr 210 ------- 3 1.0 2.0 14 15
+ 0.5036 1 2 cbr 210 ------- 3 1.0 2.0 15 16
- 0.5036 1 2 cbr 210 ------- 3 1.0 2.0 15 16
+ 0.50384 1 2 cbr 210 ------- 3 1.0 2.0 16 17
- 0.50384 1 2 cbr 210 ------- 3 1.0 2.0 16 17
+ 0.50408 1 2 cbr 210 ------- 3 1.0 2.0 17 18
- 0.50408 1 2 cbr 210 ------- 3 1.0 2.0 17 18
+ 0.50432 1 2 cbr 210 ------- 3 1.0 2.0 18 19
- 0.50432 1 2 cbr 210 ------- 3 1.0 2.0 18 19
+ 0.50456 1 2 cbr 210 ------- 3 1.0 2.0 19 20
- 0.50456 1 2 cbr 210 ------- 3 1.0 2.0 19 20
+ 0.5048 1 2 cbr 210 ------- 3 1.0 2.0 20 21
- 0.5048 1 2 cbr 210 ------- 3 1.0 2.0 20 21
+ 0.50504 1 2 cbr 210 ------- 3 1.0 2.0 21 22
- 0.50504 1 2 cbr 210 ------- 3 1.0 2.0 21 22
+ 0.50528 1 2 cbr 210 ------- 3 1.0 2.0 22 23
- 0.50528 1 2 cbr 210 ------- 3 1.0 2.0 22 23
+ 0.50552 1 2 cbr 210 ------- 3 1.0 2.0 23 24
- 0.50552 1 2 cbr 210 ------- 3 1.0 2.0 23 24
+ 0.50576 1 2 cbr 210 ------- 3 1.0 2.0 24 25
- 0.50576 1 2 cbr 210 ------- 3 1.0 2.0 24 25
+ 0.506 1 2 cbr 210 ------- 3 1.0 2.0 25 26
- 0.506 1 2 cbr 210 ------- 3 1.0 2.0 25 26
+ 0.50624 1 2 cbr 210 ------- 3 1.0 2.0 26 27
- 0.50624 1 2 cbr 210 ------- 3 1.0 2.0 26 27
+ 0.50648 1 2 cbr 210 ------- 3 1.0 2.0 27 28
- 0.50648 1 2 cbr 210 ------- 3 1.0 2.0 27 28
+ 0.50672 1 2 cbr 210 ------- 3 1.0 2.0 28 29
- 0.50672 1 2 cbr 210 ------- 3 1.0 2.0 28 29
+ 0.50696 1 2 cbr 210 ------- 3 1.0 2.0 29 30
- 0.50696 1 2 cbr 210 ------- 3 1.0 2.0 29 30
+ 0.5072 1 2 cbr 210 ------- 3 1.0 2.0 30 31
- 0.5072 1 2 cbr 210 ------- 3 1.0 2.0 30 31
+ 0.50744 1 2 cbr 210 ------- 3 1.0 2.0 31 32
- 0.50744 1 2 cbr 210 ------- 3 1.0 2.0 31 32
+ 0.50768 1 2 cbr 210 ------- 3 1.0 2.0 32 33
- 0.50768 1 2 cbr 210 ------- 3 1.0 2.0 32 33
+ 0.50792 1 2 cbr 210 ------- 3 1.0 2.0 33 34
- 0.50792 1 2 cbr 210 ------- 3 1.0 2.0 33 34
+ 0.50816 1 2 cbr 210 ------- 3 1.0 2.0 34 35
- 0.50816 1 2 cbr 210 ------- 3 1.0 2.0 34 35
+ 0.5084 1 2 cbr 210 ------- 3 1.0 2.0 35 36
- 0.5084 1 2 cbr 210 ------- 3 1.0 2.0 35 36
+ 0.50864 1 2 cbr 210 ------- 3 1.0 2.0 36 37
- 0.50864 1 2 cbr 210 ------- 3 1.0 2.0 36 37
+ 0.50888 1 2 cbr 210 ------- 3 1.0 2.0 37 38
- 0.50888 1 2 cbr 210 ------- 3 1.0 2.0 37 38
+ 0.50912 1 2 cbr 210 ------- 3 1.0 2.0 38 39
- 0.50912 1 2 cbr 210 ------- 3 1.0 2.0 38 39
+ 0.50936 1 2 cbr 210 ------- 3 1.0 2.0 39 40
- 0.50936 1 2 cbr 210 ------- 3 1.0 2.0 39 40
+ 0.5096 1 2 cbr 210 ------- 3 1.0 2.0 40 41
- 0.5096 1 2 cbr 210 ------- 3 1.0 2.0 40 41
+ 0.50984 1 2 cbr 210 ------- 3 1.0 2.0 41 42
- 0.50984 1 2 cbr 210 ------- 3 1.0 2.0 41 42
r 0.510032 0 1 tcp 40 ------- 1 0.0 3.0 0 1
+ 0.510032 1 2 tcp 40 ------- 1 0.0 3.0 0 1
- 0.510032 1 2 tcp 40 ------- 1 0.0 3.0 0 1
+ 0.51008 1 2 cbr 210 ------- 3 1.0 2.0 42 43
- 0.51008 1 2 cbr 210 ------- 3 1.0 2.0 42 43
r 0.510168 1 2 cbr 210 ------- 3 1.0 2.0 0 0
+ 0.51032 1 2 cbr 210 ------- 3 1.0 2.0 43 44
- 0.51032 1 2 cbr 210 ------- 3 1.0 2.0 43 44
r 0.510408 1 2 cbr 210 ------- 3 1.0 2.0 1 2
+ 0.51056 1 2 cbr 210 ------- 3 1.0 2.0 44 45
- 0.51056 1 2 cbr 210 ------- 3 1.0 2.0 44 45
r 0.510648 1 2 cbr 210 ------- 3 1.0 2.0 2 3
+ 0.5108 1 2 cbr 210 ------- 3 1.0 2.0 45 46
- 0.5108 1 2 cbr 210 ------- 3 1.0 2.0 45 46
r 0.510888 1 2 cbr 210 ------- 3 1.0 2.0 3 4
+ 0.51104 1 2 cbr 210 ------- 3 1.0 2.0 46 47
- 0.51104 1 2 cbr 210 ------- 3 1.0 2.0 46 47
r 0.511128 1 2 cbr 210 ------- 3 1.0 2.0 4 5
+ 0.51128 1 2 cbr 210 ------- 3 1.0 2.0 47 48
- 0.51128 1 2 cbr 210 ------- 3 1.0 2.0 47 48
r 0.511368 1 2 cbr 210 ------- 3 1.0 2.0 5 6
+ 0.51152 1 2 cbr 210 ------- 3 1.0 2.0 48 49
- 0.51152 1 2 cbr 210 ------- 3 1.0 2.0 48 49
r 0.511608 1 2 cbr 210 ------- 3 1.0 2.0 6 7
+ 0.51176 1 2 cbr 210 ------- 3 1.0 2.0 49 50
- 0.51176 1 2 cbr 210 ------- 3 1.0 2.0 49 50
r 0.511848 1 2 cbr 210 ------- 3 1.0 2.0 7 8
+ 0.512 1 2 cbr 210 ------- 3 1.0 2.0 50 51
- 0.512 1 2 cbr 210 ------- 3 1.0 2.0 50 51
r 0.512088 1 2 cbr 210 ------- 3 1.0 2.0 8 9
+ 0.51224 1 2 cbr 210 ------- 3 1.0 2.0 51 52
- 0.51224 1 2 cbr 210 ------- 3 1.0 2.0 51 52
r 0.512328 1 2 cbr 210 ------- 3 1.0 2.0 9 10
+ 0.51248 1 2 cbr 210 ------- 3 1.0 2.0 52 53
- 0.51248 1 2 cbr 210 ------- 3 1.0 2.0 52 53
r 0.512568 1 2 cbr 210 ------- 3 1.0 2.0 10 11
+ 0.51272 1 2 cbr 210 ------- 3 1.0 2.0 53 54
- 0.51272 1 2 cbr 210 ------- 3 1.0 2.0 53 54
r 0.512808 1 2 cbr 210 ------- 3 1.0 2.0 11 12
+ 0.51296 1 2 cbr 210 ------- 3 1.0 2.0 54 55
- 0.51296 1 2 cbr 210 ------- 3 1.0 2.0 54 55
r 0.513048 1 2 cbr 210 ------- 3 1.0 2.0 12 13
+ 0.5132 1 2 cbr 210 ------- 3 1.0 2.0 55 56
- 0.5132 1 2 cbr 210 ------- 3 1.0 2.0 55 56
r 0.513288 1 2 cbr 210 ------- 3 1.0 2.0 13 14
+ 0.51344 1 2 cbr 210 ------- 3 1.0 2.0 56 57
- 0.51344 1 2 cbr 210 ------- 3 1.0 2.0 56 57
r 0.513528 1 2 cbr 210 ------- 3 1.0 2.0 14 15
+ 0.51368 1 2 cbr 210 ------- 3 1.0 2.0 57 58
- 0.51368 1 2 cbr 210 ------- 3 1.0 2.0 57 58
r 0.513768 1 2 cbr 210 ------- 3 1.0 2.0 15 16
+ 0.51392 1 2 cbr 210 ------- 3 1.0 2.0 58 59
- 0.51392 1 2 cbr 210 ------- 3 1.0 2.0 58 59
r 0.514008 1 2 cbr 210 ------- 3 1.0 2.0 16 17
+ 0.51416 1 2 cbr 210 ------- 3 1.0 2.0 59 60
- 0.51416 1 2 cbr 210 ------- 3 1.0 2.0 59 60
r 0.514248 1 2 cbr 210 ------- 3 1.0 2.0 17 18
+ 0.5144 1 2 cbr 210 ------- 3 1.0 2.0 60 61
- 0.5144 1 2 cbr 210 ------- 3 1.0 2.0 60 61
r 0.514488 1 2 cbr 210 ------- 3 1.0 2.0 18 19
+ 0.51464 1 2 cbr 210 ------- 3 1.0 2.0 61 62
- 0.51464 1 2 cbr 210 ------- 3 1.0 2.0 61 62
r 0.514728 1 2 cbr 210 ------- 3 1.0 2.0 19 20
+ 0.51488 1 2 cbr 210 ------- 3 1.0 2.0 62 63
- 0.51488 1 2 cbr 210 ------- 3 1.0 2.0 62 63
r 0.514968 1 2 cbr 210 ------- 3 1.0 2.0 20 21
+ 0.51512 1 2 cbr 210 ------- 3 1.0 2.0 63 64
- 0.51512 1 2 cbr 210 ------- 3 1.0 2.0 63 64
r 0.515208 1 2 cbr 210 ------- 3 1.0 2.0 21 22
+ 0.51536 1 2 cbr 210 ------- 3 1.0 2.0 64 65
- 0.51536 1 2 cbr 210 ------- 3 1.0 2.0 64 65
r 0.515448 1 2 cbr 210 ------- 3 1.0 2.0 22 23
+ 0.5156 1 2 cbr 210 ------- 3 1.0 2.0 65 66
- 0.5156 1 2 cbr 210 ------- 3 1.0 2.0 65 66
r 0.515688 1 2 cbr 210 ------- 3 1.0 2.0 23 24
+ 0.51584 1 2 cbr 210 ------- 3 1.0 2.0 66 67
- 0.51584 1 2 cbr 210 ------- 3 1.0 2.0 66 67
r 0.515928 1 2 cbr 210 ------- 3 1.0 2.0 24 25
+ 0.51608 1 2 cbr 210 ------- 3 1.0 2.0 67 68
- 0.51608 1 2 cbr 210 ------- 3 1.0 2.0 67 68
r 0.516168 1 2 cbr 210 ------- 3 1.0 2.0 25 26
+ 0.51632 1 2 cbr 210 ------- 3 1.0 2.0 68 69
- 0.51632 1 2 cbr 210 ------- 3 1.0 2.0 68 69
r 0.516408 1 2 cbr 210 ------- 3 1.0 2.0 26 27
+ 0.51656 1 2 cbr 210 ------- 3 1.0 2.0 69 70
- 0.51656 1 2 cbr 210 ------- 3 1.0 2.0 69 70
r 0.516648 1 2 cbr 210 ------- 3 1.0 2.0 27 28
+ 0.5168 1 2 cbr 210 ------- 3 1.0 2.0 70 71
- 0.5168 1 2 cbr 210 ------- 3 1.0 2.0 70 71
r 0.516888 1 2 cbr 210 ------- 3 1.0 2.0 28 29
+ 0.51704 1 2 cbr 210 ------- 3 1.0 2.0 71 72
- 0.51704 1 2 cbr 210 ------- 3 1.0 2.0 71 72
r 0.517128 1 2 cbr 210 ------- 3 1.0 2.0 29 30
+ 0.51728 1 2 cbr 210 ------- 3 1.0 2.0 72 73
- 0.51728 1 2 cbr 210 ------- 3 1.0 2.0 72 73
r 0.517368 1 2 cbr 210 ------- 3 1.0 2.0 30 31
+ 0.51752 1 2 cbr 210 ------- 3 1.0 2.0 73 74
- 0.51752 1 2 cbr 210 ------- 3 1.0 2.0 73 74
r 0.517608 1 2 cbr 210 ------- 3 1.0 2.0 31 32
+ 0.51776 1 2 cbr 210 ------- 3 1.0 2.0 74 75
- 0.51776 1 2 cbr 210 ------- 3 1.0 2.0 74 75
r 0.517848 1 2 cbr 210 ------- 3 1.0 2.0 32 33
+ 0.518 1 2 cbr 210 ------- 3 1.0 2.0 75 76
- 0.518 1 2 cbr 210 ------- 3 1.0 2.0 75 76
r 0.518088 1 2 cbr 210 ------- 3 1.0 2.0 33 34
+ 0.51824 1 2 cbr 210 ------- 3 1.0 2.0 76 77
- 0.51824 1 2 cbr 210 ------- 3 1.0 2.0 76 77
r 0.518328 1 2 cbr 210 ------- 3 1.0 2.0 34 35
+ 0.51848 1 2 cbr 210 ------- 3 1.0 2.0 77 78
- 0.51848 1 2 cbr 210 ------- 3 1.0 2.0 77 78
r 0.518568 1 2 cbr 210 ------- 3 1.0 2.0 35 36
+ 0.51872 1 2 cbr 210 ------- 3 1.0 2.0 78 79
- 0.51872 1 2 cbr 210 ------- 3 1.0 2.0 78 79
r 0.518808 1 2 cbr 210 ------- 3 1.0 2.0 36 37
+ 0.51896 1 2 cbr 210 ------- 3 1.0 2.0 79 80
- 0.51896 1 2 cbr 210 ------- 3 1.0 2.0 79 80
r 0.519048 1 2 cbr 210 ------- 3 1.0 2.0 37 38
+ 0.5192 1 2 cbr 210 ------- 3 1.0 2.0 80 81
- 0.5192 1 2 cbr 210 ------- 3 1.0 2.0 80 81
r 0.519288 1 2 cbr 210 ------- 3 1.0 2.0 38 39
+ 0.51944 1 2 cbr 210 ------- 3 1.0 2.0 81 82
- 0.51944 1 2 cbr 210 ------- 3 1.0 2.0 81 82
r 0.519528 1 2 cbr 210 ------- 3 1.0 2.0 39 40
+ 0.51968 1 2 cbr 210 ------- 3 1.0 2.0 82 83
- 0.51968 1 2 cbr 210 ------- 3 1.0 2.0 82 83
r 0.519768 1 2 cbr 210 ------- 3 1.0 2.0 40 41
+ 0.51992 1 2 cbr 210 ------- 3 1.0 2.0 83 84
- 0.51992 1 2 cbr 210 ------- 3 1.0 2.0 83 84
r 0.520008 1 2 cbr 210 ------- 3 1.0 2.0 41 42
r 0.520064 1 2 tcp 40 ------- 1 0.0 3.0 0 1
+ 0.520064 2 3 tcp 40 ------- 1 0.0 3.0 0 1
- 0.520064 2 3 tcp 40 ------- 1 0.0 3.0 0 1
+ 0.52016 1 2 cbr 210 ------- 3 1.0 2.0 84 85
- 0.52016 1 2 cbr 210 ------- 3 1.0 2.0 84 85
r 0.520248 1 2 cbr 210 ------- 3 1.0 2.0 42 43
+ 0.5204 1 2 cbr 210 ------- 3 1.0 2.0 85 86
- 0.5204 1 2 cbr 210 ------- 3 1.0 2.0 85 86
r 0.520488 1 2 cbr 210 ------- 3 1.0 2.0 43 44
+ 0.52064 1 2 cbr 210 ------- 3 1.0 2.0 86 87
- 0.52064 1 2 cbr 210 ------- 3 1.0 2.0 86 87
r 0.520728 1 2 cbr 210 ------- 3 1.0 2.0 44 45
+ 0.52088 1 2 cbr 210 ------- 3 1.0 2.0 87 88
- 0.52088 1 2 cbr 210 ------- 3 1.0 2.0 87 88
r 0.520968 1 2 cbr 210 ------- 3 1.0 2.0 45 46
+ 0.52112 1 2 cbr 210 ------- 3 1.0 2.0 88 89
- 0.52112 1 2 cbr 210 ------- 3 1.0 2.0 88 89
r 0.521208 1 2 cbr 210 ------- 3 1.0 2.0 46 47
+ 0.52136 1 2 cbr 210 ------- 3 1.0 2.0 89 90
- 0.52136 1 2 cbr 210 ------- 3 1.0 2.0 89 90
r 0.521448 1 2 cbr 210 ------- 3 1.0 2.0 47 48
+ 0.5216 1 2 cbr 210 ------- 3 1.0 2.0 90 91
- 0.5216 1 2 cbr 210 ------- 3 1.0 2.0 90 91
r 0.521688 1 2 cbr 210 ------- 3 1.0 2.0 48 49
+ 0.52184 1 2 cbr 210 ------- 3 1.0 2.0 91 92
- 0.52184 1 2 cbr 210 ------- 3 1.0 2.0 91 92
r 0.521928 1 2 cbr 210 ------- 3 1.0 2.0 49 50
+ 0.52208 1 2 cbr 210 ------- 3 1.0 2.0 92 93
- 0.52208 1 2 cbr 210 ------- 3 1.0 2.0 92 93
r 0.522168 1 2 cbr 210 ------- 3 1.0 2.0 50 51
+ 0.52232 1 2 cbr 210 ------- 3 1.0 2.0 93 94
- 0.52232 1 2 cbr 210 ------- 3 1.0 2.0 93 94
r 0.522408 1 2 cbr 210 ------- 3 1.0 2.0 51 52
+ 0.52256 1 2 cbr 210 ------- 3 1.0 2.0 94 95
- 0.52256 1 2 cbr 210 ------- 3 1.0 2.0 94 95
r 0.522648 1 2 cbr 210 ------- 3 1.0 2.0 52 53
+ 0.5228 1 2 cbr 210 ------- 3 1.0 2.0 95 96
- 0.5228 1 2 cbr 210 ------- 3 1.0 2.0 95 96
r 0.522888 1 2 cbr 210 ------- 3 1.0 2.0 53 54
+ 0.52304 1 2 cbr 210 ------- 3 1.0 2.0 96 97
- 0.52304 1 2 cbr 210 ------- 3 1.0 2.0 96 97
r 0.523128 1 2 cbr 210 ------- 3 1.0 2.0 54 55
+ 0.52328 1 2 cbr 210 ------- 3 1.0 2.0 97 98
- 0.52328 1 2 cbr 210 ------- 3 1.0 2.0 97 98
r 0.523368 1 2 cbr 210 ------- 3 1.0 2.0 55 56
+ 0.52352 1 2 cbr 210 ------- 3 1.0 2.0 98 99
- 0.52352 1 2 cbr 210 ------- 3 1.0 2.0 98 99
r 0.523608 1 2 cbr 210 ------- 3 1.0 2.0 56 57
+ 0.52376 1 2 cbr 210 ------- 3 1.0 2.0 99 100
- 0.52376 1 2 cbr 210 ------- 3 1.0 2.0 99 100
r 0.523848 1 2 cbr 210 ------- 3 1.0 2.0 57 58
+ 0.524 1 2 cbr 210 ------- 3 1.0 2.0 100 101
- 0.524 1 2 cbr 210 ------- 3 1.0 2.0 100 101
r 0.524088 1 2 cbr 210 ------- 3 1.0 2.0 58 59
+ 0.52424 1 2 cbr 210 ------- 3 1.0 2.0 101 102
- 0.52424 1 2 cbr 210 ------- 3 1.0 2.0 101 102
r 0.524328 1 2 cbr 210 ------- 3 1.0 2.0 59 60
+ 0.52448 1 2 cbr 210 ------- 3 1.0 2.0 102 103
- 0.52448 1 2 cbr 210 ------- 3 1.0 2.0 102 103
r 0.524568 1 2 cbr 210 ------- 3 1.0 2.0 60 61
+ 0.52472 1 2 cbr 210 ------- 3 1.0 2.0 103 104
- 0.52472 1 2 cbr 210 ------- 3 1.0 2.0 103 104
r 0.524808 1 2 cbr 210 ------- 3 1.0 2.0 61 62
+ 0.52496 1 2 cbr 210 ------- 3 1.0 2.0 104 105
- 0.52496 1 2 cbr 210 ------- 3 1.0 2.0 104 105
r 0.525048 1 2 cbr 210 ------- 3 1.0 2.0 62 63
+ 0.5252 1 2 cbr 210 ------- 3 1.0 2.0 105 106
- 0.5252 1 2 cbr 210 ------- 3 1.0 2.0 105 106
r 0.525288 1 2 cbr 210 ------- 3 1.0 2.0 63 64
+ 0.52544 1 2 cbr 210 ------- 3 1.0 2.0 106 107
- 0.52544 1 2 cbr 210 ------- 3 1.0 2.0 106 107
r 0.525528 1 2 cbr 210 ------- 3 1.0 2.0 64 65
+ 0.52568 1 2 cbr 210 ------- 3 1.0 2.0 107 108
- 0.52568 1 2 cbr 210 ------- 3 1.0 2.0 107 108
r 0.525768 1 2 cbr 210 ------- 3 1.0 2.0 65 66
+ 0.52592 1 2 cbr 210 ------- 3 1.0 2.0 108 109
- 0.52592 1 2 cbr 210 ------- 3 1.0 2.0 108 109
r 0.526008 1 2 cbr 210 ------- 3 1.0 2.0 66 67
+ 0.52616 1 2 cbr 210 ------- 3 1.0 2.0 109 110
- 0.52616 1 2 cbr 210 ------- 3 1.0 2.0 109 110
r 0.526248 1 2 cbr 210 ------- 3 1.0 2.0 67 68
+ 0.5264 1 2 cbr 210 ------- 3 1.0 2.0 110 111
- 0.5264 1 2 cbr 210 ------- 3 1.0 2.0 110 111
r 0.526488 1 2 cbr 210 ------- 3 1.0 2.0 68 69
+ 0.52664 1 2 cbr 210 ------- 3 1.0 2.0 111 112
- 0.52664 1 2 cbr 210 ------- 3 1.0 2.0 111 112
r 0.526728 1 2 cbr 210 ------- 3 1.0 2.0 69 70
+ 0.52688 1 2 cbr 210 ------- 3 1.0 2.0 112 113
- 0.52688 1 2 cbr 210 ------- 3 1.0 2.0 112 113
r 0.526968 1 2 cbr 210 ------- 3 1.0 2.0 70 71
+ 0.52712 1 2 cbr 210 ------- 3 1.0 2.0 113 114
- 0.52712 1 2 cbr 210 ------- 3 1.0 2.0 113 114
r 0.527208 1 2 cbr 210 ------- 3 1.0 2.0 71 72
+ 0.52736 1 2 cbr 210 ------- 3 1.0 2.0 114 115
- 0.52736 1 2 cbr 210 ------- 3 1.0 2.0 114 115
r 0.527448 1 2 cbr 210 ------- 3 1.0 2.0 72 73
+ 0.5276 1 2 cbr 210 ------- 3 1.0 2.0 115 116
- 0.5276 1 2 cbr 210 ------- 3 1.0 2.0 115 116
r 0.527688 1 2 cbr 210 ------- 3 1.0 2.0 73 74
+ 0.52784 1 2 cbr 210 ------- 3 1.0 2.0 116 117
- 0.52784 1 2 cbr 210 ------- 3 1.0 2.0 116 117
r 0.527928 1 2 cbr 210 ------- 3 1.0 2.0 74 75
+ 0.52808 1 2 cbr 210 ------- 3 1.0 2.0 117 118
- 0.52808 1 2 cbr 210 ------- 3 1.0 2.0 117 118
r 0.528168 1 2 cbr 210 ------- 3 1.0 2.0 75 76
+ 0.52832 1 2 cbr 210 ------- 3 1.0 2.0 118 119
- 0.52832 1 2 cbr 210 ------- 3 1.0 2.0 118 119
r 0.528408 1 2 cbr 210 ------- 3 1.0 2.0 76 77
+ 0.52856 1 2 cbr 210 ------- 3 1.0 2.0 119 120
- 0.52856 1 2 cbr 210 ------- 3 1.0 2.0 119 120
r 0.528648 1 2 cbr 210 ------- 3 1.0 2.0 77 78
+ 0.5288 1 2 cbr 210 ------- 3 1.0 2.0 120 121
- 0.5288 1 2 cbr 210 ------- 3 1.0 2.0 120 121
r 0.528888 1 2 cbr 210 ------- 3 1.0 2.0 78 79
+ 0.52904 1 2 cbr 210 ------- 3 1.0 2.0 121 122
- 0.52904 1 2 cbr 210 ------- 3 1.0 2.0 121 122
r 0.529128 1 2 cbr 210 ------- 3 1.0 2.0 79 80
+ 0.52928 1 2 cbr 210 ------- 3 1.0 2.0 122 123
- 0.52928 1 2 cbr 210 ------- 3 1.0 2.0 122 123
r 0.529368 1 2 cbr 210 ------- 3 1.0 2.0 80 81
+ 0.52952 1 2 cbr 210 ------- 3 1.0 2.0 123 124
- 0.52952 1 2 cbr 210 ------- 3 1.0 2.0 123 124
r 0.529608 1 2 cbr 210 ------- 3 1.0 2.0 81 82
+ 0.52976 1 2 cbr 210 ------- 3 1.0 2.0 124 125
- 0.52976 1 2 cbr 210 ------- 3 1.0 2.0 124 125
r 0.529848 1 2 cbr 210 ------- 3 1.0 2.0 82 83
+ 0.53 1 2 cbr 210 ------- 3 1.0 2.0 125 126
- 0.53 1 2 cbr 210 ------- 3 1.0 2.0 125 126
r 0.530088 1 2 cbr 210 ------- 3 1.0 2.0 83 84
r 0.530096 2 3 tcp 40 ------- 1 0.0 3.0 0 1
+ 0.530096 3 2 ack 40 ------- 1 3.0 0.0 0 127
- 0.530096 3 2 ack 40 ------- 1 3.0 0.0 0 127
+ 0.53024 1 2 cbr 210 ------- 3 1.0 2.0 126 128
- 0.53024 1 2 cbr 210 ------- 3 1.0 2.0 126 128
r 0.530328 1 2 cbr 210 ------- 3 1.0 2.0 84 85
+ 0.53048 1 2 cbr 210 ------- 3 1.0 2.0 127 129
- 0.53048 1 2 cbr 210 ------- 3 1.0 2.0 127 129
r 0.530568 1 2 cbr 210 ------- 3 1.0 2.0 85 86
+ 0.53072 1 2 cbr 210 ------- 3 1.0 2.0 128 130
- 0.53072 1 2 cbr 210 ------- 3 1.0 2.0 128 130
r 0.530808 1 2 cbr 210 ------- 3 1.0 2.0 86 87
+ 0.53096 1 2 cbr 210 ------- 3 1.0 2.0 129 131
- 0.53096 1 2 cbr 210 ------- 3 1.0 2.0 129 131
r 0.531048 1 2 cbr 210 ------- 3 1.0 2.0 87 88
+ 0.5312 1 2 cbr 210 ------- 3 1.0 2.0 130 132
- 0.5312 1 2 cbr 210 ------- 3 1.0 2.0 130 132
r 0.531288 1 2 cbr 210 ------- 3 1.0 2.0 88 89
+ 0.53144 1 2 cbr 210 ------- 3 1.0 2.0 131 133
- 0.53144 1 2 cbr 210 ------- 3 1.0 2.0 131 133
r 0.531528 1 2 cbr 210 ------- 3 1.0 2.0 89 90
+ 0.53168 1 2 cbr 210 ------- 3 1.0 2.0 132 134
- 0.53168 1 2 cbr 210 ------- 3 1.0 2.0 132 134
r 0.531768 1 2 cbr 210 ------- 3 1.0 2.0 90 91
+ 0.53192 1 2 cbr 210 ------- 3 1.0 2.0 133 135
- 0.53192 1 2 cbr 210 ------- 3 1.0 2.0 133 135
r 0.532008 1 2 cbr 210 ------- 3 1.0 2.0 91 92
+ 0.53216 1 2 cbr 210 ------- 3 1.0 2.0 134 136
- 0.53216 1 2 cbr 210 ------- 3 1.0 2.0 134 136
r 0.532248 1 2 cbr 210 ------- 3 1.0 2.0 92 93
+ 0.5324 1 2 cbr 210 ------- 3 1.0 2.0 135 137
- 0.5324 1 2 cbr 210 ------- 3 1.0 2.0 135 137
r 0.532488 1 2 cbr 210 ------- 3 1.0 2.0 93 94
+ 0.53264 1 2 cbr 210 ------- 3 1.0 2.0 136 138
- 0.53264 1 2 cbr 210 ------- 3 1.0 2.0 136 138
r 0.532728 1 2 cbr 210 ------- 3 1.0 2.0 94 95
+ 0.53288 1 2 cbr 210 ------- 3 1.0 2.0 137 139
- 0.53288 1 2 cbr 210 ------- 3 1.0 2.0 137 139
r 0.532968 1 2 cbr 210 ------- 3 1.0 2.0 95 96
+ 0.53312 1 2 cbr 210 ------- 3 1.0 2.0 138 140
- 0.53312 1 2 cbr 210 ------- 3 1.0 2.0 138 140
r 0.533208 1 2 cbr 210 ------- 3 1.0 2.0 96 97
+ 0.53336 1 2 cbr 210 ------- 3 1.0 2.0 139 141
- 0.53336 1 2 cbr 210 ------- 3 1.0 2.0 139 141
r 0.533448 1 2 cbr 210 ------- 3 1.0 2.0 97 98
+ 0.5336 1 2 cbr 210 ------- 3 1.0 2.0 140 142
- 0.5336 1 2 cbr 210 ------- 3 1.0 2.0 140 142
r 0.533688 1 2 cbr 210 ------- 3 1.0 2.0 98 99
+ 0.53384 1 2 cbr 210 ------- 3 1.0 2.0 141 143
- 0.53384 1 2 cbr 210 ------- 3 1.0 2.0 141 143
r 0.533928 1 2 cbr 210 ------- 3 1.0 2.0 99 100
+ 0.53408 1 2 cbr 210 ------- 3 1.0 2.0 142 144
- 0.53408 1 2 cbr 210 ------- 3 1.0 2.0 142 144
r 0.534168 1 2 cbr 210 ------- 3 1.0 2.0 100 101
+ 0.53432 1 2 cbr 210 ------- 3 1.0 2.0 143 145
- 0.53432 1 2 cbr 210 ------- 3 1.0 2.0 143 145
r 0.534408 1 2 cbr 210 ------- 3 1.0 2.0 101 102
+ 0.53456 1 2 cbr 210 ------- 3 1.0 2.0 144 146
- 0.53456 1 2 cbr 210 ------- 3 1.0 2.0 144 146
r 0.534648 1 2 cbr 210 ------- 3 1.0 2.0 102 103
+ 0.5348 1 2 cbr 210 ------- 3 1.0 2.0 145 147
- 0.5348 1 2 cbr 210 ------- 3 1.0 2.0 145 147
r 0.534888 1 2 cbr 210 ------- 3 1.0 2.0 103 104
+ 0.53504 1 2 cbr 210 ------- 3 1.0 2.0 146 148
- 0.53504 1 2 cbr 210 ------- 3 1.0 2.0 146 148
r 0.535128 1 2 cbr 210 ------- 3 1.0 2.0 104 105
+ 0.53528 1 2 cbr 210 ------- 3 1.0 2.0 147 149
- 0.53528 1 2 cbr 210 ------- 3 1.0 2.0 147 149
r 0.535368 1 2 cbr 210 ------- 3 1.0 2.0 105 106
+ 0.53552 1 2 cbr 210 ------- 3 1.0 2.0 148 150
- 0.53552 1 2 cbr 210 ------- 3 1.0 2.0 148 150
r 0.535608 1 2 cbr 210 ------- 3 1.0 2.0 106 107
+ 0.53576 1 2 cbr 210 ------- 3 1.0 2.0 149 151
- 0.53576 1 2 cbr 210 ------- 3 1.0 2.0 149 151
r 0.535848 1 2 cbr 210 ------- 3 1.0 2.0 107 108
+ 0.536 1 2 cbr 210 ------- 3 1.0 2.0 150 152
- 0.536 1 2 cbr 210 ------- 3 1.0 2.0 150 152
r 0.536088 1 2 cbr 210 ------- 3 1.0 2.0 108 109
+ 0.53624 1 2 cbr 210 ------- 3 1.0 2.0 151 153
- 0.53624 1 2 cbr 210 ------- 3 1.0 2.0 151 153
r 0.536328 1 2 cbr 210 ------- 3 1.0 2.0 109 110
+ 0.53648 1 2 cbr 210 ------- 3 1.0 2.0 152 154
- 0.53648 1 2 cbr 210 ------- 3 1.0 2.0 152 154
r 0.536568 1 2 cbr 210 ------- 3 1.0 2.0 110 111
+ 0.53672 1 2 cbr 210 ------- 3 1.0 2.0 153 155
- 0.53672 1 2 cbr 210 ------- 3 1.0 2.0 153 155
r 0.536808 1 2 cbr 210 ------- 3 1.0 2.0 111 112
+ 0.53696 1 2 cbr 210 ------- 3 1.0 2.0 154 156
- 0.53696 1 2 cbr 210 ------- 3 1.0 2.0 154 156
r 0.537048 1 2 cbr 210 ------- 3 1.0 2.0 112 113
+ 0.5372 1 2 cbr 210 ------- 3 1.0 2.0 155 157
- 0.5372 1 2 cbr 210 ------- 3 1.0 2.0 155 157
r 0.537288 1 2 cbr 210 ------- 3 1.0 2.0 113 114
+ 0.53744 1 2 cbr 210 ------- 3 1.0 2.0 156 158
- 0.53744 1 2 cbr 210 ------- 3 1.0 2.0 156 158
r 0.537528 1 2 cbr 210 ------- 3 1.0 2.0 114 115
+ 0.53768 1 2 cbr 210 ------- 3 1.0 2.0 157 159
- 0.53768 1 2 cbr 210 ------- 3 1.0 2.0 157 159
r 0.537768 1 2 cbr 210 ------- 3 1.0 2.0 115 116
+ 0.53792 1 2 cbr 210 ------- 3 1.0 2.0 158 160
- 0.53792 1 2 cbr 210 ------- 3 1.0 2.0 158 160
r 0.538008 1 2 cbr 210 ------- 3 1.0 2.0 116 117
+ 0.53816 1 2 cbr 210 ------- 3 1.0 2.0 159 161
- 0.53816 1 2 cbr 210 ------- 3 1.0 2.0 159 161
r 0.538248 1 2 cbr 210 ------- 3 1.0 2.0 117 118
+ 0.5384 1 2 cbr 210 ------- 3 1.0 2.0 160 162
- 0.5384 1 2 cbr 210 ------- 3 1.0 2.0 160 162
r 0.538488 1 2 cbr 210 ------- 3 1.0 2.0 118 119
+ 0.53864 1 2 cbr 210 ------- 3 1.0 2.0 161 163
- 0.53864 1 2 cbr 210 ------- 3 1.0 2.0 161 163
r 0.538728 1 2 cbr 210 ------- 3 1.0 2.0 119 120
+ 0.53888 1 2 cbr 210 ------- 3 1.0 2.0 162 164
- 0.53888 1 2 cbr 210 ------- 3 1.0 2.0 162 164
r 0.538968 1 2 cbr 210 ------- 3 1.0 2.0 120 121
+ 0.53912 1 2 cbr 210 ------- 3 1.0 2.0 163 165
- 0.53912 1 2 cbr 210 ------- 3 1.0 2.0 163 165
r 0.539208 1 2 cbr 210 ------- 3 1.0 2.0 121 122
+ 0.53936 1 2 cbr 210 ------- 3 1.0 2.0 164 166
- 0.53936 1 2 cbr 210 ------- 3 1.0 2.0 164 166
r 0.539448 1 2 cbr 210 ------- 3 1.0 2.0 122 123
+ 0.5396 1 2 cbr 210 ------- 3 1.0 2.0 165 167
- 0.5396 1 2 cbr 210 ------- 3 1.0 2.0 165 167
r 0.539688 1 2 cbr 210 ------- 3 1.0 2.0 123 124
+ 0.53984 1 2 cbr 210 ------- 3 1.0 2.0 166 168
- 0.53984 1 2 cbr 210 ------- 3 1.0 2.0 166 168
r 0.539928 1 2 cbr 210 ------- 3 1.0 2.0 124 125
+ 0.54008 1 2 cbr 210 ------- 3 1.0 2.0 167 169
- 0.54008 1 2 cbr 210 ------- 3 1.0 2.0 167 169
r 0.540128 3 2 ack 40 ------- 1 3.0 0.0 0 127
+ 0.540128 2 1 ack 40 ------- 1 3.0 0.0 0 127
- 0.540128 2 1 ack 40 ------- 1 3.0 0.0 0 127
r 0.540168 1 2 cbr 210 ------- 3 1.0 2.0 125 126
+ 0.54032 1 2 cbr 210 ------- 3 1.0 2.0 168 170
- 0.54032 1 2 cbr 210 ------- 3 1.0 2.0 168 170
r 0.540408 1 2 cbr 210 ------- 3 1.0 2.0 126 128
+ 0.54056 1 2 cbr 210 ------- 3 1.0 2.0 169 171
- 0.54056 1 2 cbr 210 ------- 3 1.0 2.0 169 171
r 0.540648 1 2 cbr 210 ------- 3 1.0 2.0 127 129
+ 0.5408 1 2 cbr 210 ------- 3 1.0 2.0 170 172
- 0.5408 1 2 cbr 210 ------- 3 1.0 2.0 170 172
r 0.540888 1 2 cbr 210 ------- 3 1.0 2.0 128 130
+ 0.54104 1 2 cbr 210 ------- 3 1.0 2.0 171 173
- 0.54104 1 2 cbr 210 ------- 3 1.0 2.0 171 173
r 0.541128 1 2 cbr 210 ------- 3 1.0 2.0 129 131
+ 0.54128 1 2 cbr 210 ------- 3 1.0 2.0 172 174
- 0.54128 1 2 cbr 210 ------- 3 1.0 2.0 172 174
r 0.541368 1 2 cbr 210 ------- 3 1.0 2.0 130 132
+ 0.54152 1 2 cbr 210 ------- 3 1.0 2.0 173 175
- 0.54152 1 2 cbr 210 ------- 3 1.0 2.0 173 175
r 0.541608 1 2 cbr 210 ------- 3 1.0 2.0 131 133
+ 0.54176 1 2 cbr 210 ------- 3 1.0 2.0 174 176
- 0.54176 1 2 cbr 210 ------- 3 1.0 2.0 174 176
r 0.541848 1 2 cbr 210 ------- 3 1.0 2.0 132 134
+ 0.542 1 2 cbr 210 ------- 3 1.0 2.0 175 177
- 0.542 1 2 cbr 210 ------- 3 1.0 2.0 175 177
r 0.542088 1 2 cbr 210 ------- 3 1.0 2.0 133 135
+ 0.54224 1 2 cbr 210 ------- 3 1.0 2.0 176 178
- 0.54224 1 2 cbr 210 ------- 3 1.0 2.0 176 178
r 0.542328 1 2 cbr 210 ------- 3 1.0 2.0 134 136
+ 0.54248 1 2 cbr 210 ------- 3 1.0 2.0 177 179
- 0.54248 1 2 cbr 210 ------- 3 1.0 2.0 177 179
r 0.542568 1 2 cbr 210 ------- 3 1.0 2.0 135 137
+ 0.54272 1 2 cbr 210 ------- 3 1.0 2.0 178 180
- 0.54272 1 2 cbr 210 ------- 3 1.0 2.0 178 180
r 0.542808 1 2 cbr 210 ------- 3 1.0 2.0 136 138
+ 0.54296 1 2 cbr 210 ------- 3 1.0 2.0 179 181
- 0.54296 1 2 cbr 210 ------- 3 1.0 2.0 179 181
r 0.543048 1 2 cbr 210 ------- 3 1.0 2.0 137 139
+ 0.5432 1 2 cbr 210 ------- 3 1.0 2.0 180 182
- 0.5432 1 2 cbr 210 ------- 3 1.0 2.0 180 182
r 0.543288 1 2 cbr 210 ------- 3 1.0 2.0 138 140
+ 0.54344 1 2 cbr 210 ------- 3 1.0 2.0 181 183
- 0.54344 1 2 cbr 210 ------- 3 1.0 2.0 181 183
r 0.543528 1 2 cbr 210 ------- 3 1.0 2.0 139 141
+ 0.54368 1 2 cbr 210 ------- 3 1.0 2.0 182 184
- 0.54368 1 2 cbr 210 ------- 3 1.0 2.0 182 184
r 0.543768 1 2 cbr 210 ------- 3 1.0 2.0 140 142
+ 0.54392 1 2 cbr 210 ------- 3 1.0 2.0 183 185
- 0.54392 1 2 cbr 210 ------- 3 1.0 2.0 183 185
r 0.544008 1 2 cbr 210 ------- 3 1.0 2.0 141 143
+ 0.54416 1 2 cbr 210 ------- 3 1.0 2.0 184 186
- 0.54416 1 2 cbr 210 ------- 3 1.0 2.0 184 186
r 0.544248 1 2 cbr 210 ------- 3 1.0 2.0 142 144
+ 0.5444 1 2 cbr 210 ------- 3 1.0 2.0 185 187
- 0.5444 1 2 cbr 210 ------- 3 1.0 2.0 185 187
r 0.544488 1 2 cbr 210 ------- 3 1.0 2.0 143 145
+ 0.54464 1 2 cbr 210 ------- 3 1.0 2.0 186 188
- 0.54464 1 2 cbr 210 ------- 3 1.0 2.0 186 188
r 0.544728 1 2 cbr 210 ------- 3 1.0 2.0 144 146
+ 0.54488 1 2 cbr 210 ------- 3 1.0 2.0 187 189
- 0.54488 1 2 cbr 210 ------- 3 1.0 2.0 187 189
r 0.544968 1 2 cbr 210 ------- 3 1.0 2.0 145 147
+ 0.54512 1 2 cbr 210 ------- 3 1.0 2.0 188 190
- 0.54512 1 2 cbr 210 ------- 3 1.0 2.0 188 190
r 0.545208 1 2 cbr 210 ------- 3 1.0 2.0 146 148
+ 0.54536 1 2 cbr 210 ------- 3 1.0 2.0 189 191
- 0.54536 1 2 cbr 210 ------- 3 1.0 2.0 189 191
r 0.545448 1 2 cbr 210 ------- 3 1.0 2.0 147 149
+ 0.5456 1 2 cbr 210 ------- 3 1.0 2.0 190 192
- 0.5456 1 2 cbr 210 ------- 3 1.0 2.0 190 192
r 0.545688 1 2 cbr 210 ------- 3 1.0 2.0 148 150
+ 0.54584 1 2 cbr 210 ------- 3 1.0 2.0 191 193
- 0.54584 1 2 cbr 210 ------- 3 1.0 2.0 191 193
r 0.545928 1 2 cbr 210 ------- 3 1.0 2.0 149 151
+ 0.54608 1 2 cbr 210 ------- 3 1.0 2.0 192 194
- 0.54608 1 2 cbr 210 ------- 3 1.0 2.0 192 194
r 0.546168 1 2 cbr 210 ------- 3 1.0 2.0 150 152
+ 0.54632 1 2 cbr 210 ------- 3 1.0 2.0 193 195
- 0.54632 1 2 cbr 210 ------- 3 1.0 2.0 193 195
r 0.546408 1 2 cbr 210 ------- 3 1.0 2.0 151 153
+ 0.54656 1 2 cbr 210 ------- 3 1.0 2.0 194 196
- 0.54656 1 2 cbr 210 ------- 3 1.0 2.0 194 196
r 0.546648 1 2 cbr 210 ------- 3 1.0 2.0 152 154
+ 0.5468 1 2 cbr 210 ------- 3 1.0 2.0 195 197
- 0.5468 1 2 cbr 210 ------- 3 1.0 2.0 195 197
r 0.546888 1 2 cbr 210 ------- 3 1.0 2.0 153 155
+ 0.54704 1 2 cbr 210 ------- 3 1.0 2.0 196 198
- 0.54704 1 2 cbr 210 ------- 3 1.0 2.0 196 198
r 0.547128 1 2 cbr 210 ------- 3 1.0 2.0 154 156
+ 0.54728 1 2 cbr 210 ------- 3 1.0 2.0 197 199
- 0.54728 1 2 cbr 210 ------- 3 1.0 2.0 197 199
r 0.547368 1 2 cbr 210 ------- 3 1.0 2.0 155 157
+ 0.54752 1 2 cbr 210 ------- 3 1.0 2.0 198 200
- 0.54752 1 2 cbr 210 ------- 3 1.0 2.0 198 200
r 0.547608 1 2 cbr 210 ------- 3 1.0 2.0 156 158
+ 0.54776 1 2 cbr 210 ------- 3 1.0 2.0 199 201
- 0.54776 1 2 cbr 210 ------- 3 1.0 2.0 199 201
r 0.547848 1 2 cbr 210 ------- 3 1.0 2.0 157 159
+ 0.548 1 2 cbr 210 ------- 3 1.0 2.0 200 202
- 0.548 1 2 cbr 210 ------- 3 1.0 2.0 200 202
r 0.548088 1 2 cbr 210 ------- 3 1.0 2.0 158 160
+ 0.54824 1 2 cbr 210 ------- 3 1.0 2.0 201 203
- 0.54824 1 2 cbr 210 ------- 3 1.0 2.0 201 203
r 0.548328 1 2 cbr 210 ------- 3 1.0 2.0 159 161
+ 0.54848 1 2 cbr 210 ------- 3 1.0 2.0 202 204
- 0.54848 1 2 cbr 210 ------- 3 1.0 2.0 202 204
r 0.548568 1 2 cbr 210 ------- 3 1.0 2.0 160 162
+ 0.54872 1 2 cbr 210 ------- 3 1.0 2.0 203 205
- 0.54872 1 2 cbr 210 ------- 3 1.0 2.0 203 205
r 0.548808 1 2 cbr 210 ------- 3 1.0 2.0 161 163
+ 0.54896 1 2 cbr 210 ------- 3 1.0 2.0 204 206
- 0.54896 1 2 cbr 210 ------- 3 1.0 2.0 204 206
r 0.549048 1 2 cbr 210 ------- 3 1.0 2.0 162 164
+ 0.5492 1 2 cbr 210 ------- 3 1.0 2.0 205 207
- 0.5492 1 2 cbr 210 ------- 3 1.0 2.0 205 207
r 0.549288 1 2 cbr 210 ------- 3 1.0 2.0 163 165
+ 0.54944 1 2 cbr 210 ------- 3 1.0 2.0 206 208
- 0.54944 1 2 cbr 210 ------- 3 1.0 2.0 206 208
r 0.549528 1 2 cbr 210 ------- 3 1.0 2.0 164 166
+ 0.54968 1 2 cbr 210 ------- 3 1.0 2.0 207 209
- 0.54968 1 2 cbr 210 ------- 3 1.0 2.0 207 209
r 0.549768 1 2 cbr 210 ------- 3 1.0 2.0 165 167
+ 0.54992 1 2 cbr 210 ------- 3 1.0 2.0 208 210
- 0.54992 1 2 cbr 210 ------- 3 1.0 2.0 208 210
r 0.550008 1 2 cbr 210 ------- 3 1.0 2.0 166 168
r 0.55016 2 1 ack 40 ------- 1 3.0 0.0 0 127
+ 0.55016 1 0 ack 40 ------- 1 3.0 0.0 0 127
- 0.55016 1 0 ack 40 ------- 1 3.0 0.0 0 127
+ 0.55016 1 2 cbr 210 ------- 3 1.0 2.0 209 211
- 0.55016 1 2 cbr 210 ------- 3 1.0 2.0 209 211
r 0.550248 1 2 cbr 210 ------- 3 1.0 2.0 167 169
+ 0.5504 1 2 cbr 210 ------- 3 1.0 2.0 210 212
- 0.5504 1 2 cbr 210 ------- 3 1.0 2.0 210 212
r 0.550488 1 2 cbr 210 ------- 3 1.0 2.0 168 170
+ 0.55064 1 2 cbr 210 ------- 3 1.0 2.0 211 213
- 0.55064 1 2 cbr 210 ------- 3 1.0 2.0 211 213
r 0.550728 1 2 cbr 210 ------- 3 1.0 2.0 169 171
+ 0.55088 1 2 cbr 210 ------- 3 1.0 2.0 212 214
- 0.55088 1 2 cbr 210 ------- 3 1.0 2.0 212 214
r 0.550968 1 2 cbr 210 ------- 3 1.0 2.0 170 172
+ 0.55112 1 2 cbr 210 ------- 3 1.0 2.0 213 215
- 0.55112 1 2 cbr 210 ------- 3 1.0 2.0 213 215
r 0.551208 1 2 cbr 210 ------- 3 1.0 2.0 171 173
+ 0.55136 1 2 cbr 210 ------- 3 1.0 2.0 214 216
- 0.55136 1 2 cbr 210 ------- 3 1.0 2.0 214 216
r 0.551448 1 2 cbr 210 ------- 3 1.0 2.0 172 174
+ 0.5516 1 2 cbr 210 ------- 3 1.0 2.0 215 217
- 0.5516 1 2 cbr 210 ------- 3 1.0 2.0 215 217
r 0.551688 1 2 cbr 210 ------- 3 1.0 2.0 173 175
+ 0.55184 1 2 cbr 210 ------- 3 1.0 2.0 216 218
- 0.55184 1 2 cbr 210 ------- 3 1.0 2.0 216 218
r 0.551928 1 2 cbr 210 ------- 3 1.0 2.0 174 176
+ 0.55208 1 2 cbr 210 ------- 3 1.0 2.0 217 219
- 0.55208 1 2 cbr 210 ------- 3 1.0 2.0 217 219
r 0.552168 1 2 cbr 210 ------- 3 1.0 2.0 175 177
+ 0.55232 1 2 cbr 210 ------- 3 1.0 2.0 218 220
- 0.55232 1 2 cbr 210 ------- 3 1.0 2.0 218 220
r 0.552408 1 2 cbr 210 ------- 3 1.0 2.0 176 178
+ 0.55256 1 2 cbr 210 ------- 3 1.0 2.0 219 221
- 0.55256 1 2 cbr 210 ------- 3 1.0 2.0 219 221
r 0.552648 1 2 cbr 210 ------- 3 1.0 2.0 177 179
+ 0.5528 1 2 cbr 210 ------- 3 1.0 2.0 220 222
- 0.5528 1 2 cbr 210 ------- 3 1.0 2.0 220 222
r 0.552888 1 2 cbr 210 ------- 3 1.0 2.0 178 180