+ 0.5 1 2 cbr 210 ------- 3 1.0 2.0 0 0
- 0.5 1 2 cbr 210 ------- 3 1.0 2.0 0 0
+ 0.5 0 1 tcp 40 ------- 1 0.0 3.0 0 1
- 0.5 0 1 tcp 40 ------- 1 0.0 3.0 0 1
+ 0.5 4 1 tcp 40 ------- 2 4.0 5.0 0 2
- 0.5 4 1 tcp 40 ------- 2 4.0 5.0 0 2
+ 0.50021 1 2 cbr 210 ------- 3 1.0 2.0 1 3
+ 0.50042 1 2 cbr 210 ------- 3 1.0 2.0 2 4
+ 0.50063 1 2 cbr 210 ------- 3 1.0 2.0 3 5
+ 0.50084 1 2 cbr 210 ------- 3 1.0 2.0 4 6
+ 0.50105 1 2 cbr 210 ------- 3 1.0 2.0 5 7
+ 0.50126 1 2 cbr 210 ------- 3 1.0 2.0 6 8
+ 0.50147 1 2 cbr 210 ------- 3 1.0 2.0 7 9
- 0.50168 1 2 cbr 210 ------- 3 1.0 2.0 1 3
+ 0.50168 1 2 cbr 210 ------- 3 1.0 2.0 8 10
+ 0.50189 1 2 cbr 210 ------- 3 1.0 2.0 9 11
+ 0.5021 1 2 cbr 210 ------- 3 1.0 2.0 10 12
+ 0.50231 1 2 cbr 210 ------- 3 1.0 2.0 11 13
+ 0.50252 1 2 cbr 210 ------- 3 1.0 2.0 12 14
+ 0.50273 1 2 cbr 210 ------- 3 1.0 2.0 13 15
+ 0.50294 1 2 cbr 210 ------- 3 1.0 2.0 14 16
+ 0.50315 1 2 cbr 210 ------- 3 1.0 2.0 15 17
- 0.50336 1 2 cbr 210 ------- 3 1.0 2.0 2 4
+ 0.50336 1 2 cbr 210 ------- 3 1.0 2.0 16 18
+ 0.50357 1 2 cbr 210 ------- 3 1.0 2.0 17 19
+ 0.50378 1 2 cbr 210 ------- 3 1.0 2.0 18 20
+ 0.50399 1 2 cbr 210 ------- 3 1.0 2.0 19 21
+ 0.5042 1 2 cbr 210 ------- 3 1.0 2.0 20 22
+ 0.50441 1 2 cbr 210 ------- 3 1.0 2.0 21 23
+ 0.50462 1 2 cbr 210 ------- 3 1.0 2.0 22 24
+ 0.50483 1 2 cbr 210 ------- 3 1.0 2.0 23 25
- 0.50504 1 2 cbr 210 ------- 3 1.0 2.0 3 5
+ 0.50504 1 2 cbr 210 ------- 3 1.0 2.0 24 26
+ 0.50525 1 2 cbr 210 ------- 3 1.0 2.0 25 27
+ 0.50546 1 2 cbr 210 ------- 3 1.0 2.0 26 28
+ 0.50567 1 2 cbr 210 ------- 3 1.0 2.0 27 29
+ 0.50588 1 2 cbr 210 ------- 3 1.0 2.0 28 30
+ 0.50609 1 2 cbr 210 ------- 3 1.0 2.0 29 31
+ 0.5063 1 2 cbr 210 ------- 3 1.0 2.0 30 32
+ 0.50651 1 2 cbr 210 ------- 3 1.0 2.0 31 33
- 0.50672 1 2 cbr 210 ------- 3 1.0 2.0 4 6
+ 0.50672 1 2 cbr 210 ------- 3 1.0 2.0 32 34
+ 0.50693 1 2 cbr 210 ------- 3 1.0 2.0 33 35
+ 0.50714 1 2 cbr 210 ------- 3 1.0 2.0 34 36
+ 0.50735 1 2 cbr 210 ------- 3 1.0 2.0 35 37
+ 0.50756 1 2 cbr 210 ------- 3 1.0 2.0 36 38
+ 0.50777 1 2 cbr 210 ------- 3 1.0 2.0 37 39
+ 0.50798 1 2 cbr 210 ------- 3 1.0 2.0 38 40
+ 0.50819 1 2 cbr 210 ------- 3 1.0 2.0 39 41
- 0.5084 1 2 cbr 210 ------- 3 1.0 2.0 5 7
+ 0.5084 1 2 cbr 210 ------- 3 1.0 2.0 40 42
+ 0.50861 1 2 cbr 210 ------- 3 1.0 2.0 41 43
+ 0.50882 1 2 cbr 210 ------- 3 1.0 2.0 42 44
+ 0.50903 1 2 cbr 210 ------- 3 1.0 2.0 43 45
+ 0.50924 1 2 cbr 210 ------- 3 1.0 2.0 44 46
+ 0.50945 1 2 cbr 210 ------- 3 1.0 2.0 45 47
+ 0.50966 1 2 cbr 210 ------- 3 1.0 2.0 46 48
+ 0.50987 1 2 cbr 210 ------- 3 1.0 2.0 47 49
r 0.510032 0 1 tcp 40 ------- 1 0.0 3.0 0 1
+ 0.510032 1 2 tcp 40 ------- 1 0.0 3.0 0 1
r 0.510032 4 1 tcp 40 ------- 2 4.0 5.0 0 2
+ 0.510032 1 2 tcp 40 ------- 2 4.0 5.0 0 2
- 0.51008 1 2 cbr 210 ------- 3 1.0 2.0 6 8
+ 0.51008 1 2 cbr 210 ------- 3 1.0 2.0 48 50
+ 0.51029 1 2 cbr 210 ------- 3 1.0 2.0 49 51
+ 0.5105 1 2 cbr 210 ------- 3 1.0 2.0 50 52
+ 0.51071 1 2 cbr 210 ------- 3 1.0 2.0 51 53
+ 0.51092 1 2 cbr 210 ------- 3 1.0 2.0 52 54
+ 0.51113 1 2 cbr 210 ------- 3 1.0 2.0 53 55
+ 0.51134 1 2 cbr 210 ------- 3 1.0 2.0 54 56
d 0.51134 1 2 cbr 210 ------- 3 1.0 2.0 54 56
+ 0.51155 1 2 cbr 210 ------- 3 1.0 2.0 55 57
d 0.51155 1 2 cbr 210 ------- 3 1.0 2.0 55 57
r 0.51168 1 2 cbr 210 ------- 3 1.0 2.0 0 0
- 0.51176 1 2 cbr 210 ------- 3 1.0 2.0 7 9
+ 0.51176 1 2 cbr 210 ------- 3 1.0 2.0 56 58
+ 0.51197 1 2 cbr 210 ------- 3 1.0 2.0 57 59
d 0.51197 1 2 cbr 210 ------- 3 1.0 2.0 57 59
+ 0.51218 1 2 cbr 210 ------- 3 1.0 2.0 58 60
d 0.51218 1 2 cbr 210 ------- 3 1.0 2.0 58 60
+ 0.51239 1 2 cbr 210 ------- 3 1.0 2.0 59 61
d 0.51239 1 2 cbr 210 ------- 3 1.0 2.0 59 61
+ 0.5126 1 2 cbr 210 ------- 3 1.0 2.0 60 62
d 0.5126 1 2 cbr 210 ------- 3 1.0 2.0 60 62
+ 0.51281 1 2 cbr 210 ------- 3 1.0 2.0 61 63
d 0.51281 1 2 cbr 210 ------- 3 1.0 2.0 61 63
+ 0.51302 1 2 cbr 210 ------- 3 1.0 2.0 62 64
d 0.51302 1 2 cbr 210 ------- 3 1.0 2.0 62 64
+ 0.51323 1 2 cbr 210 ------- 3 1.0 2.0 63 65
d 0.51323 1 2 cbr 210 ------- 3 1.0 2.0 63 65
r 0.51336 1 2 cbr 210 ------- 3 1.0 2.0 1 3
- 0.51344 1 2 cbr 210 ------- 3 1.0 2.0 8 10
+ 0.51344 1 2 cbr 210 ------- 3 1.0 2.0 64 66
+ 0.51365 1 2 cbr 210 ------- 3 1.0 2.0 65 67
d 0.51365 1 2 cbr 210 ------- 3 1.0 2.0 65 67
+ 0.51386 1 2 cbr 210 ------- 3 1.0 2.0 66 68
d 0.51386 1 2 cbr 210 ------- 3 1.0 2.0 66 68
+ 0.51407 1 2 cbr 210 ------- 3 1.0 2.0 67 69
d 0.51407 1 2 cbr 210 ------- 3 1.0 2.0 67 69
+ 0.51428 1 2 cbr 210 ------- 3 1.0 2.0 68 70
d 0.51428 1 2 cbr 210 ------- 3 1.0 2.0 68 70
+ 0.51449 1 2 cbr 210 ------- 3 1.0 2.0 69 71
d 0.51449 1 2 cbr 210 ------- 3 1.0 2.0 69 71
+ 0.5147 1 2 cbr 210 ------- 3 1.0 2.0 70 72
d 0.5147 1 2 cbr 210 ------- 3 1.0 2.0 70 72
+ 0.51491 1 2 cbr 210 ------- 3 1.0 2.0 71 73
d 0.51491 1 2 cbr 210 ------- 3 1.0 2.0 71 73
r 0.51504 1 2 cbr 210 ------- 3 1.0 2.0 2 4
- 0.51512 1 2 cbr 210 ------- 3 1.0 2.0 9 11
+ 0.51512 1 2 cbr 210 ------- 3 1.0 2.0 72 74
+ 0.51533 1 2 cbr 210 ------- 3 1.0 2.0 73 75
d 0.51533 1 2 cbr 210 ------- 3 1.0 2.0 73 75
+ 0.51554 1 2 cbr 210 ------- 3 1.0 2.0 74 76
d 0.51554 1 2 cbr 210 ------- 3 1.0 2.0 74 76
+ 0.51575 1 2 cbr 210 ------- 3 1.0 2.0 75 77
d 0.51575 1 2 cbr 210 ------- 3 1.0 2.0 75 77
+ 0.51596 1 2 cbr 210 ------- 3 1.0 2.0 76 78
d 0.51596 1 2 cbr 210 ------- 3 1.0 2.0 76 78
+ 0.51617 1 2 cbr 210 ------- 3 1.0 2.0 77 79
d 0.51617 1 2 cbr 210 ------- 3 1.0 2.0 77 79
+ 0.51638 1 2 cbr 210 ------- 3 1.0 2.0 78 80
d 0.51638 1 2 cbr 210 ------- 3 1.0 2.0 78 80
+ 0.51659 1 2 cbr 210 ------- 3 1.0 2.0 79 81
d 0.51659 1 2 cbr 210 ------- 3 1.0 2.0 79 81
r 0.51672 1 2 cbr 210 ------- 3 1.0 2.0 3 5
- 0.5168 1 2 cbr 210 ------- 3 1.0 2.0 10 12
+ 0.5168 1 2 cbr 210 ------- 3 1.0 2.0 80 82
+ 0.51701 1 2 cbr 210 ------- 3 1.0 2.0 81 83
d 0.51701 1 2 cbr 210 ------- 3 1.0 2.0 81 83
+ 0.51722 1 2 cbr 210 ------- 3 1.0 2.0 82 84
d 0.51722 1 2 cbr 210 ------- 3 1.0 2.0 82 84
+ 0.51743 1 2 cbr 210 ------- 3 1.0 2.0 83 85
d 0.51743 1 2 cbr 210 ------- 3 1.0 2.0 83 85
+ 0.51764 1 2 cbr 210 ------- 3 1.0 2.0 84 86
d 0.51764 1 2 cbr 210 ------- 3 1.0 2.0 84 86
+ 0.51785 1 2 cbr 210 ------- 3 1.0 2.0 85 87
d 0.51785 1 2 cbr 210 ------- 3 1.0 2.0 85 87
+ 0.51806 1 2 cbr 210 ------- 3 1.0 2.0 86 88
d 0.51806 1 2 cbr 210 ------- 3 1.0 2.0 86 88
+ 0.51827 1 2 cbr 210 ------- 3 1.0 2.0 87 89
d 0.51827 1 2 cbr 210 ------- 3 1.0 2.0 87 89
r 0.5184 1 2 cbr 210 ------- 3 1.0 2.0 4 6
- 0.51848 1 2 cbr 210 ------- 3 1.0 2.0 11 13
+ 0.51848 1 2 cbr 210 ------- 3 1.0 2.0 88 90
+ 0.51869 1 2 cbr 210 ------- 3 1.0 2.0 89 91
d 0.51869 1 2 cbr 210 ------- 3 1.0 2.0 89 91
+ 0.5189 1 2 cbr 210 ------- 3 1.0 2.0 90 92
d 0.5189 1 2 cbr 210 ------- 3 1.0 2.0 90 92
+ 0.51911 1 2 cbr 210 ------- 3 1.0 2.0 91 93
d 0.51911 1 2 cbr 210 ------- 3 1.0 2.0 91 93
+ 0.51932 1 2 cbr 210 ------- 3 1.0 2.0 92 94
d 0.51932 1 2 cbr 210 ------- 3 1.0 2.0 92 94
+ 0.51953 1 2 cbr 210 ------- 3 1.0 2.0 93 95
d 0.51953 1 2 cbr 210 ------- 3 1.0 2.0 93 95
+ 0.51974 1 2 cbr 210 ------- 3 1.0 2.0 94 96
d 0.51974 1 2 cbr 210 ------- 3 1.0 2.0 94 96
+ 0.51995 1 2 cbr 210 ------- 3 1.0 2.0 95 97
d 0.51995 1 2 cbr 210 ------- 3 1.0 2.0 95 97
r 0.52008 1 2 cbr 210 ------- 3 1.0 2.0 5 7
- 0.52016 1 2 cbr 210 ------- 3 1.0 2.0 12 14
+ 0.52016 1 2 cbr 210 ------- 3 1.0 2.0 96 98
+ 0.52037 1 2 cbr 210 ------- 3 1.0 2.0 97 99
d 0.52037 1 2 cbr 210 ------- 3 1.0 2.0 97 99
+ 0.52058 1 2 cbr 210 ------- 3 1.0 2.0 98 100
d 0.52058 1 2 cbr 210 ------- 3 1.0 2.0 98 100
+ 0.52079 1 2 cbr 210 ------- 3 1.0 2.0 99 101
d 0.52079 1 2 cbr 210 ------- 3 1.0 2.0 99 101
+ 0.521 1 2 cbr 210 ------- 3 1.0 2.0 100 102
d 0.521 1 2 cbr 210 ------- 3 1.0 2.0 100 102
+ 0.52121 1 2 cbr 210 ------- 3 1.0 2.0 101 103
d 0.52121 1 2 cbr 210 ------- 3 1.0 2.0 101 103
+ 0.52142 1 2 cbr 210 ------- 3 1.0 2.0 102 104
d 0.52142 1 2 cbr 210 ------- 3 1.0 2.0 102 104
+ 0.52163 1 2 cbr 210 ------- 3 1.0 2.0 103 105
d 0.52163 1 2 cbr 210 ------- 3 1.0 2.0 103 105
r 0.52176 1 2 cbr 210 ------- 3 1.0 2.0 6 8
- 0.52184 1 2 cbr 210 ------- 3 1.0 2.0 13 15
+ 0.52184 1 2 cbr 210 ------- 3 1.0 2.0 104 106
+ 0.52205 1 2 cbr 210 ------- 3 1.0 2.0 105 107
d 0.52205 1 2 cbr 210 ------- 3 1.0 2.0 105 107
+ 0.52226 1 2 cbr 210 ------- 3 1.0 2.0 106 108
d 0.52226 1 2 cbr 210 ------- 3 1.0 2.0 106 108
+ 0.52247 1 2 cbr 210 ------- 3 1.0 2.0 107 109
d 0.52247 1 2 cbr 210 ------- 3 1.0 2.0 107 109
+ 0.52268 1 2 cbr 210 ------- 3 1.0 2.0 108 110
d 0.52268 1 2 cbr 210 ------- 3 1.0 2.0 108 110
+ 0.52289 1 2 cbr 210 ------- 3 1.0 2.0 109 111
d 0.52289 1 2 cbr 210 ------- 3 1.0 2.0 109 111
+ 0.5231 1 2 cbr 210 ------- 3 1.0 2.0 110 112
d 0.5231 1 2 cbr 210 ------- 3 1.0 2.0 110 112
+ 0.52331 1 2 cbr 210 ------- 3 1.0 2.0 111 113
d 0.52331 1 2 cbr 210 ------- 3 1.0 2.0 111 113
r 0.52344 1 2 cbr 210 ------- 3 1.0 2.0 7 9
- 0.52352 1 2 cbr 210 ------- 3 1.0 2.0 14 16
+ 0.52352 1 2 cbr 210 ------- 3 1.0 2.0 112 114
+ 0.52373 1 2 cbr 210 ------- 3 1.0 2.0 113 115
d 0.52373 1 2 cbr 210 ------- 3 1.0 2.0 113 115
+ 0.52394 1 2 cbr 210 ------- 3 1.0 2.0 114 116
d 0.52394 1 2 cbr 210 ------- 3 1.0 2.0 114 116
+ 0.52415 1 2 cbr 210 ------- 3 1.0 2.0 115 117
d 0.52415 1 2 cbr 210 ------- 3 1.0 2.0 115 117
+ 0.52436 1 2 cbr 210 ------- 3 1.0 2.0 116 118
d 0.52436 1 2 cbr 210 ------- 3 1.0 2.0 116 118
+ 0.52457 1 2 cbr 210 ------- 3 1.0 2.0 117 119
d 0.52457 1 2 cbr 210 ------- 3 1.0 2.0 117 119
+ 0.52478 1 2 cbr 210 ------- 3 1.0 2.0 118 120
d 0.52478 1 2 cbr 210 ------- 3 1.0 2.0 118 120
+ 0.52499 1 2 cbr 210 ------- 3 1.0 2.0 119 121
d 0.52499 1 2 cbr 210 ------- 3 1.0 2.0 119 121
r 0.52512 1 2 cbr 210 ------- 3 1.0 2.0 8 10
- 0.5252 1 2 cbr 210 ------- 3 1.0 2.0 15 17
+ 0.5252 1 2 cbr 210 ------- 3 1.0 2.0 120 122
+ 0.52541 1 2 cbr 210 ------- 3 1.0 2.0 121 123
d 0.52541 1 2 cbr 210 ------- 3 1.0 2.0 121 123
+ 0.52562 1 2 cbr 210 ------- 3 1.0 2.0 122 124
d 0.52562 1 2 cbr 210 ------- 3 1.0 2.0 122 124
+ 0.52583 1 2 cbr 210 ------- 3 1.0 2.0 123 125
d 0.52583 1 2 cbr 210 ------- 3 1.0 2.0 123 125
+ 0.52604 1 2 cbr 210 ------- 3 1.0 2.0 124 126
d 0.52604 1 2 cbr 210 ------- 3 1.0 2.0 124 126
+ 0.52625 1 2 cbr 210 ------- 3 1.0 2.0 125 127
d 0.52625 1 2 cbr 210 ------- 3 1.0 2.0 125 127
+ 0.52646 1 2 cbr 210 ------- 3 1.0 2.0 126 128
d 0.52646 1 2 cbr 210 ------- 3 1.0 2.0 126 128
+ 0.52667 1 2 cbr 210 ------- 3 1.0 2.0 127 129
d 0.52667 1 2 cbr 210 ------- 3 1.0 2.0 127 129
r 0.5268 1 2 cbr 210 ------- 3 1.0 2.0 9 11
- 0.52688 1 2 cbr 210 ------- 3 1.0 2.0 16 18
+ 0.52688 1 2 cbr 210 ------- 3 1.0 2.0 128 130
+ 0.52709 1 2 cbr 210 ------- 3 1.0 2.0 129 131
d 0.52709 1 2 cbr 210 ------- 3 1.0 2.0 129 131
+ 0.5273 1 2 cbr 210 ------- 3 1.0 2.0 130 132
d 0.5273 1 2 cbr 210 ------- 3 1.0 2.0 130 132
+ 0.52751 1 2 cbr 210 ------- 3 1.0 2.0 131 133
d 0.52751 1 2 cbr 210 ------- 3 1.0 2.0 131 133
+ 0.52772 1 2 cbr 210 ------- 3 1.0 2.0 132 134
d 0.52772 1 2 cbr 210 ------- 3 1.0 2.0 132 134
+ 0.52793 1 2 cbr 210 ------- 3 1.0 2.0 133 135
d 0.52793 1 2 cbr 210 ------- 3 1.0 2.0 133 135
+ 0.52814 1 2 cbr 210 ------- 3 1.0 2.0 134 136
d 0.52814 1 2 cbr 210 ------- 3 1.0 2.0 134 136
+ 0.52835 1 2 cbr 210 ------- 3 1.0 2.0 135 137
d 0.52835 1 2 cbr 210 ------- 3 1.0 2.0 135 137
r 0.52848 1 2 cbr 210 ------- 3 1.0 2.0 10 12
- 0.52856 1 2 cbr 210 ------- 3 1.0 2.0 17 19
+ 0.52856 1 2 cbr 210 ------- 3 1.0 2.0 136 138
+ 0.52877 1 2 cbr 210 ------- 3 1.0 2.0 137 139
d 0.52877 1 2 cbr 210 ------- 3 1.0 2.0 137 139
+ 0.52898 1 2 cbr 210 ------- 3 1.0 2.0 138 140
d 0.52898 1 2 cbr 210 ------- 3 1.0 2.0 138 140
+ 0.52919 1 2 cbr 210 ------- 3 1.0 2.0 139 141
d 0.52919 1 2 cbr 210 ------- 3 1.0 2.0 139 141
+ 0.5294 1 2 cbr 210 ------- 3 1.0 2.0 140 142
d 0.5294 1 2 cbr 210 ------- 3 1.0 2.0 140 142
+ 0.52961 1 2 cbr 210 ------- 3 1.0 2.0 141 143
d 0.52961 1 2 cbr 210 ------- 3 1.0 2.0 141 143
+ 0.52982 1 2 cbr 210 ------- 3 1.0 2.0 142 144
d 0.52982 1 2 cbr 210 ------- 3 1.0 2.0 142 144
+ 0.53003 1 2 cbr 210 ------- 3 1.0 2.0 143 145
d 0.53003 1 2 cbr 210 ------- 3 1.0 2.0 143 145
r 0.53016 1 2 cbr 210 ------- 3 1.0 2.0 11 13
- 0.53024 1 2 cbr 210 ------- 3 1.0 2.0 18 20
+ 0.53024 1 2 cbr 210 ------- 3 1.0 2.0 144 146
+ 0.53045 1 2 cbr 210 ------- 3 1.0 2.0 145 147
d 0.53045 1 2 cbr 210 ------- 3 1.0 2.0 145 147
+ 0.53066 1 2 cbr 210 ------- 3 1.0 2.0 146 148
d 0.53066 1 2 cbr 210 ------- 3 1.0 2.0 146 148
+ 0.53087 1 2 cbr 210 ------- 3 1.0 2.0 147 149
d 0.53087 1 2 cbr 210 ------- 3 1.0 2.0 147 149
+ 0.53108 1 2 cbr 210 ------- 3 1.0 2.0 148 150
d 0.53108 1 2 cbr 210 ------- 3 1.0 2.0 148 150
+ 0.53129 1 2 cbr 210 ------- 3 1.0 2.0 149 151
d 0.53129 1 2 cbr 210 ------- 3 1.0 2.0 149 151
+ 0.5315 1 2 cbr 210 ------- 3 1.0 2.0 150 152
d 0.5315 1 2 cbr 210 ------- 3 1.0 2.0 150 152
+ 0.53171 1 2 cbr 210 ------- 3 1.0 2.0 151 153
d 0.53171 1 2 cbr 210 ------- 3 1.0 2.0 151 153
r 0.53184 1 2 cbr 210 ------- 3 1.0 2.0 12 14
- 0.53192 1 2 cbr 210 ------- 3 1.0 2.0 19 21
+ 0.53192 1 2 cbr 210 ------- 3 1.0 2.0 152 154
+ 0.53213 1 2 cbr 210 ------- 3 1.0 2.0 153 155
d 0.53213 1 2 cbr 210 ------- 3 1.0 2.0 153 155
+ 0.53234 1 2 cbr 210 ------- 3 1.0 2.0 154 156
d 0.53234 1 2 cbr 210 ------- 3 1.0 2.0 154 156
+ 0.53255 1 2 cbr 210 ------- 3 1.0 2.0 155 157
d 0.53255 1 2 cbr 210 ------- 3 1.0 2.0 155 157
+ 0.53276 1 2 cbr 210 ------- 3 1.0 2.0 156 158
d 0.53276 1 2 cbr 210 ------- 3 1.0 2.0 156 158
+ 0.53297 1 2 cbr 210 ------- 3 1.0 2.0 157 159
d 0.53297 1 2 cbr 210 ------- 3 1.0 2.0 157 159
+ 0.53318 1 2 cbr 210 ------- 3 1.0 2.0 158 160
d 0.53318 1 2 cbr 210 ------- 3 1.0 2.0 158 160
+ 0.53339 1 2 cbr 210 ------- 3 1.0 2.0 159 161
d 0.53339 1 2 cbr 210 ------- 3 1.0 2.0 159 161
r 0.53352 1 2 cbr 210 ------- 3 1.0 2.0 13 15
- 0.5336 1 2 cbr 210 ------- 3 1.0 2.0 20 22
+ 0.5336 1 2 cbr 210 ------- 3 1.0 2.0 160 162
+ 0.53381 1 2 cbr 210 ------- 3 1.0 2.0 161 163
d 0.53381 1 2 cbr 210 ------- 3 1.0 2.0 161 163
+ 0.53402 1 2 cbr 210 ------- 3 1.0 2.0 162 164
d 0.53402 1 2 cbr 210 ------- 3 1.0 2.0 162 164
+ 0.53423 1 2 cbr 210 ------- 3 1.0 2.0 163 165
d 0.53423 1 2 cbr 210 ------- 3 1.0 2.0 163 165
+ 0.53444 1 2 cbr 210 ------- 3 1.0 2.0 164 166
d 0.53444 1 2 cbr 210 ------- 3 1.0 2.0 164 166
+ 0.53465 1 2 cbr 210 ------- 3 1.0 2.0 165 167
d 0.53465 1 2 cbr 210 ------- 3 1.0 2.0 165 167
+ 0.53486 1 2 cbr 210 ------- 3 1.0 2.0 166 168
d 0.53486 1 2 cbr 210 ------- 3 1.0 2.0 166 168
+ 0.53507 1 2 cbr 210 ------- 3 1.0 2.0 167 169
d 0.53507 1 2 cbr 210 ------- 3 1.0 2.0 167 169
r 0.5352 1 2 cbr 210 ------- 3 1.0 2.0 14 16
- 0.53528 1 2 cbr 210 ------- 3 1.0 2.0 21 23
+ 0.53528 1 2 cbr 210 ------- 3 1.0 2.0 168 170
+ 0.53549 1 2 cbr 210 ------- 3 1.0 2.0 169 171
d 0.53549 1 2 cbr 210 ------- 3 1.0 2.0 169 171
+ 0.5357 1 2 cbr 210 ------- 3 1.0 2.0 170 172
d 0.5357 1 2 cbr 210 ------- 3 1.0 2.0 170 172
+ 0.53591 1 2 cbr 210 ------- 3 1.0 2.0 171 173
d 0.53591 1 2 cbr 210 ------- 3 1.0 2.0 171 173
+ 0.53612 1 2 cbr 210 ------- 3 1.0 2.0 172 174
d 0.53612 1 2 cbr 210 ------- 3 1.0 2.0 172 174
+ 0.53633 1 2 cbr 210 ------- 3 1.0 2.0 173 175
d 0.53633 1 2 cbr 210 ------- 3 1.0 2.0 173 175
+ 0.53654 1 2 cbr 210 ------- 3 1.0 2.0 174 176
d 0.53654 1 2 cbr 210 ------- 3 1.0 2.0 174 176
+ 0.53675 1 2 cbr 210 ------- 3 1.0 2.0 175 177
d 0.53675 1 2 cbr 210 ------- 3 1.0 2.0 175 177
r 0.53688 1 2 cbr 210 ------- 3 1.0 2.0 15 17
- 0.53696 1 2 cbr 210 ------- 3 1.0 2.0 22 24
+ 0.53696 1 2 cbr 210 ------- 3 1.0 2.0 176 178
+ 0.53717 1 2 cbr 210 ------- 3 1.0 2.0 177 179
d 0.53717 1 2 cbr 210 ------- 3 1.0 2.0 177 179
+ 0.53738 1 2 cbr 210 ------- 3 1.0 2.0 178 180
d 0.53738 1 2 cbr 210 ------- 3 1.0 2.0 178 180
+ 0.53759 1 2 cbr 210 ------- 3 1.0 2.0 179 181
d 0.53759 1 2 cbr 210 ------- 3 1.0 2.0 179 181
+ 0.5378 1 2 cbr 210 ------- 3 1.0 2.0 180 182
d 0.5378 1 2 cbr 210 ------- 3 1.0 2.0 180 182
+ 0.53801 1 2 cbr 210 ------- 3 1.0 2.0 181 183
d 0.53801 1 2 cbr 210 ------- 3 1.0 2.0 181 183
+ 0.53822 1 2 cbr 210 ------- 3 1.0 2.0 182 184
d 0.53822 1 2 cbr 210 ------- 3 1.0 2.0 182 184
+ 0.53843 1 2 cbr 210 ------- 3 1.0 2.0 183 185
d 0.53843 1 2 cbr 210 ------- 3 1.0 2.0 183 185
r 0.53856 1 2 cbr 210 ------- 3 1.0 2.0 16 18
- 0.53864 1 2 cbr 210 ------- 3 1.0 2.0 23 25
+ 0.53864 1 2 cbr 210 ------- 3 1.0 2.0 184 186
+ 0.53885 1 2 cbr 210 ------- 3 1.0 2.0 185 187
d 0.53885 1 2 cbr 210 ------- 3 1.0 2.0 185 187
+ 0.53906 1 2 cbr 210 ------- 3 1.0 2.0 186 188
d 0.53906 1 2 cbr 210 ------- 3 1.0 2.0 186 188
+ 0.53927 1 2 cbr 210 ------- 3 1.0 2.0 187 189
d 0.53927 1 2 cbr 210 ------- 3 1.0 2.0 187 189
+ 0.53948 1 2 cbr 210 ------- 3 1.0 2.0 188 190
d 0.53948 1 2 cbr 210 ------- 3 1.0 2.0 188 190
+ 0.53969 1 2 cbr 210 ------- 3 1.0 2.0 189 191
d 0.53969 1 2 cbr 210 ------- 3 1.0 2.0 189 191
+ 0.5399 1 2 cbr 210 ------- 3 1.0 2.0 190 192
d 0.5399 1 2 cbr 210 ------- 3 1.0 2.0 190 192
+ 0.54011 1 2 cbr 210 ------- 3 1.0 2.0 191 193
d 0.54011 1 2 cbr 210 ------- 3 1.0 2.0 191 193
r 0.54024 1 2 cbr 210 ------- 3 1.0 2.0 17 19
- 0.54032 1 2 cbr 210 ------- 3 1.0 2.0 24 26
+ 0.54032 1 2 cbr 210 ------- 3 1.0 2.0 192 194
+ 0.54053 1 2 cbr 210 ------- 3 1.0 2.0 193 195
d 0.54053 1 2 cbr 210 ------- 3 1.0 2.0 193 195
+ 0.54074 1 2 cbr 210 ------- 3 1.0 2.0 194 196
d 0.54074 1 2 cbr 210 ------- 3 1.0 2.0 194 196
+ 0.54095 1 2 cbr 210 ------- 3 1.0 2.0 195 197
d 0.54095 1 2 cbr 210 ------- 3 1.0 2.0 195 197
+ 0.54116 1 2 cbr 210 ------- 3 1.0 2.0 196 198
d 0.54116 1 2 cbr 210 ------- 3 1.0 2.0 196 198
+ 0.54137 1 2 cbr 210 ------- 3 1.0 2.0 197 199
d 0.54137 1 2 cbr 210 ------- 3 1.0 2.0 197 199
+ 0.54158 1 2 cbr 210 ------- 3 1.0 2.0 198 200
d 0.54158 1 2 cbr 210 ------- 3 1.0 2.0 198 200
+ 0.54179 1 2 cbr 210 ------- 3 1.0 2.0 199 201
d 0.54179 1 2 cbr 210 ------- 3 1.0 2.0 199 201
r 0.54192 1 2 cbr 210 ------- 3 1.0 2.0 18 20
- 0.542 1 2 cbr 210 ------- 3 1.0 2.0 25 27
+ 0.542 1 2 cbr 210 ------- 3 1.0 2.0 200 202
+ 0.54221 1 2 cbr 210 ------- 3 1.0 2.0 201 203
d 0.54221 1 2 cbr 210 ------- 3 1.0 2.0 201 203
+ 0.54242 1 2 cbr 210 ------- 3 1.0 2.0 202 204
d 0.54242 1 2 cbr 210 ------- 3 1.0 2.0 202 204
+ 0.54263 1 2 cbr 210 ------- 3 1.0 2.0 203 205
d 0.54263 1 2 cbr 210 ------- 3 1.0 2.0 203 205
+ 0.54284 1 2 cbr 210 ------- 3 1.0 2.0 204 206
d 0.54284 1 2 cbr 210 ------- 3 1.0 2.0 204 206
+ 0.54305 1 2 cbr 210 ------- 3 1.0 2.0 205 207
d 0.54305 1 2 cbr 210 ------- 3 1.0 2.0 205 207
+ 0.54326 1 2 cbr 210 ------- 3 1.0 2.0 206 208
d 0.54326 1 2 cbr 210 ------- 3 1.0 2.0 206 208
+ 0.54347 1 2 cbr 210 ------- 3 1.0 2.0 207 209
d 0.54347 1 2 cbr 210 ------- 3 1.0 2.0 207 209
r 0.5436 1 2 cbr 210 ------- 3 1.0 2.0 19 21
- 0.54368 1 2 cbr 210 ------- 3 1.0 2.0 26 28
+ 0.54368 1 2 cbr 210 ------- 3 1.0 2.0 208 210
+ 0.54389 1 2 cbr 210 ------- 3 1.0 2.0 209 211
d 0.54389 1 2 cbr 210 ------- 3 1.0 2.0 209 211
+ 0.5441 1 2 cbr 210 ------- 3 1.0 2.0 210 212
d 0.5441 1 2 cbr 210 ------- 3 1.0 2.0 210 212
+ 0.54431 1 2 cbr 210 ------- 3 1.0 2.0 211 213
d 0.54431 1 2 cbr 210 ------- 3 1.0 2.0 211 213
+ 0.54452 1 2 cbr 210 ------- 3 1.0 2.0 212 214
d 0.54452 1 2 cbr 210 ------- 3 1.0 2.0 212 214
+ 0.54473 1 2 cbr 210 ------- 3 1.0 2.0 213 215
d 0.54473 1 2 cbr 210 ------- 3 1.0 2.0 213 215
+ 0.54494 1 2 cbr 210 ------- 3 1.0 2.0 214 216
d 0.54494 1 2 cbr 210 ------- 3 1.0 2.0 214 216
+ 0.54515 1 2 cbr 210 ------- 3 1.0 2.0 215 217
d 0.54515 1 2 cbr 210 ------- 3 1.0 2.0 215 217
r 0.54528 1 2 cbr 210 ------- 3 1.0 2.0 20 22
- 0.54536 1 2 cbr 210 ------- 3 1.0 2.0 27 29
+ 0.54536 1 2 cbr 210 ------- 3 1.0 2.0 216 218
+ 0.54557 1 2 cbr 210 ------- 3 1.0 2.0 217 219
d 0.54557 1 2 cbr 210 ------- 3 1.0 2.0 217 219
+ 0.54578 1 2 cbr 210 ------- 3 1.0 2.0 218 220
d 0.54578 1 2 cbr 210 ------- 3 1.0 2.0 218 220
+ 0.54599 1 2 cbr 210 ------- 3 1.0 2.0 219 221
d 0.54599 1 2 cbr 210 ------- 3 1.0 2.0 219 221
+ 0.5462 1 2 cbr 210 ------- 3 1.0 2.0 220 222
d 0.5462 1 2 cbr 210 ------- 3 1.0 2.0 220 222
+ 0.54641 1 2 cbr 210 ------- 3 1.0 2.0 221 223
d 0.54641 1 2 cbr 210 ------- 3 1.0 2.0 221 223
+ 0.54662 1 2 cbr 210 ------- 3 1.0 2.0 222 224
d 0.54662 1 2 cbr 210 ------- 3 1.0 2.0 222 224
+ 0.54683 1 2 cbr 210 ------- 3 1.0 2.0 223 225
d 0.54683 1 2 cbr 210 ------- 3 1.0 2.0 223 225
r 0.54696 1 2 cbr 210 ------- 3 1.0 2.0 21 23
- 0.54704 1 2 cbr 210 ------- 3 1.0 2.0 28 30
+ 0.54704 1 2 cbr 210 ------- 3 1.0 2.0 224 226
+ 0.54725 1 2 cbr 210 ------- 3 1.0 2.0 225 227
d 0.54725 1 2 cbr 210 ------- 3 1.0 2.0 225 227
+ 0.54746 1 2 cbr 210 ------- 3 1.0 2.0 226 228
d 0.54746 1 2 cbr 210 ------- 3 1.0 2.0 226 228
+ 0.54767 1 2 cbr 210 ------- 3 1.0 2.0 227 229
d 0.54767 1 2 cbr 210 ------- 3 1.0 2.0 227 229
+ 0.54788 1 2 cbr 210 ------- 3 1.0 2.0 228 230
d 0.54788 1 2 cbr 210 ------- 3 1.0 2.0 228 230
+ 0.54809 1 2 cbr 210 ------- 3 1.0 2.0 229 231
d 0.54809 1 2 cbr 210 ------- 3 1.0 2.0 229 231
+ 0.5483 1 2 cbr 210 ------- 3 1.0 2.0 230 232
d 0.5483 1 2 cbr 210 ------- 3 1.0 2.0 230 232
+ 0.54851 1 2 cbr 210 ------- 3 1.0 2.0 231 233
d 0.54851 1 2 cbr 210 ------- 3 1.0 2.0 231 233
r 0.54864 1 2 cbr 210 ------- 3 1.0 2.0 22 24
- 0.54872 1 2 cbr 210 ------- 3 1.0 2.0 29 31
+ 0.54872 1 2 cbr 210 ------- 3 1.0 2.0 232 234
+ 0.54893 1 2 cbr 210 ------- 3 1.0 2.0 233 235
d 0.54893 1 2 cbr 210 ------- 3 1.0 2.0 233 235
+ 0.54914 1 2 cbr 210 ------- 3 1.0 2.0 234 236
d 0.54914 1 2 cbr 210 ------- 3 1.0 2.0 234 236
+ 0.54935 1 2 cbr 210 ------- 3 1.0 2.0 235 237
d 0.54935 1 2 cbr 210 ------- 3 1.0 2.0 235 237
+ 0.54956 1 2 cbr 210 ------- 3 1.0 2.0 236 238
d 0.54956 1 2 cbr 210 ------- 3 1.0 2.0 236 238
+ 0.54977 1 2 cbr 210 ------- 3 1.0 2.0 237 239
d 0.54977 1 2 cbr 210 ------- 3 1.0 2.0 237 239
+ 0.54998 1 2 cbr 210 ------- 3 1.0 2.0 238 240
d 0.54998 1 2 cbr 210 ------- 3 1.0 2.0 238 240
+ 0.55019 1 2 cbr 210 ------- 3 1.0 2.0 239 241
d 0.55019 1 2 cbr 210 ------- 3 1.0 2.0 239 241
r 0.55032 1 2 cbr 210 ------- 3 1.0 2.0 23 25
- 0.5504 1 2 cbr 210 ------- 3 1.0 2.0 30 32
+ 0.5504 1 2 cbr 210 ------- 3 1.0 2.0 240 242
+ 0.55061 1 2 cbr 210 ------- 3 1.0 2.0 241 243
d 0.55061 1 2 cbr 210 ------- 3 1.0 2.0 241 243
+ 0.55082 1 2 cbr 210 ------- 3 1.0 2.0 242 244
d 0.55082 1 2 cbr 210 ------- 3 1.0 2.0 242 244
+ 0.55103 1 2 cbr 210 ------- 3 1.0 2.0 243 245
d 0.55103 1 2 cbr 210 ------- 3 1.0 2.0 243 245
+ 0.55124 1 2 cbr 210 ------- 3 1.0 2.0 244 246
d 0.55124 1 2 cbr 210 ------- 3 1.0 2.0 244 246
+ 0.55145 1 2 cbr 210 ------- 3 1.0 2.0 245 247
d 0.55145 1 2 cbr 210 ------- 3 1.0 2.0 245 247
+ 0.55166 1 2 cbr 210 ------- 3 1.0 2.0 246 248
d 0.55166 1 2 cbr 210 ------- 3 1.0 2.0 246 248
+ 0.55187 1 2 cbr 210 ------- 3 1.0 2.0 247 249
d 0.55187 1 2 cbr 210 ------- 3 1.0 2.0 247 249
r 0.552 1 2 cbr 210 ------- 3 1.0 2.0 24 26
- 0.55208 1 2 cbr 210 ------- 3 1.0 2.0 31 33
+ 0.55208 1 2 cbr 210 ------- 3 1.0 2.0 248 250
+ 0.55229 1 2 cbr 210 ------- 3 1.0 2.0 249 251
d 0.55229 1 2 cbr 210 ------- 3 1.0 2.0 249 251
+ 0.5525 1 2 cbr 210 ------- 3 1.0 2.0 250 252
d 0.5525 1 2 cbr 210 ------- 3 1.0 2.0 250 252
+ 0.55271 1 2 cbr 210 ------- 3 1.0 2.0 251 253
d 0.55271 1 2 cbr 210 ------- 3 1.0 2.0 251 253
+ 0.55292 1 2 cbr 210 ------- 3 1.0 2.0 252 254
d 0.55292 1 2 cbr 210 ------- 3 1.0 2.0 252 254
+ 0.55313 1 2 cbr 210 ------- 3 1.0 2.0 253 255
d 0.55313 1 2 cbr 210 ------- 3 1.0 2.0 253 255
+ 0.55334 1 2 cbr 210 ------- 3 1.0 2.0 254 256
d 0.55334 1 2 cbr 210 ------- 3 1.0 2.0 254 256
+ 0.55355 1 2 cbr 210 ------- 3 1.0 2.0 255 257
d 0.55355 1 2 cbr 210 ------- 3 1.0 2.0 255 257
r 0.55368 1 2 cbr 210 ------- 3 1.0 2.0 25 27
- 0.55376 1 2 cbr 210 ------- 3 1.0 2.0 32 34
+ 0.55376 1 2 cbr 210 ------- 3 1.0 2.0 256 258
+ 0.55397 1 2 cbr 210 ------- 3 1.0 2.0 257 259
d 0.55397 1 2 cbr 210 ------- 3 1.0 2.0 257 259
+ 0.55418 1 2 cbr 210 ------- 3 1.0 2.0 258 260
d 0.55418 1 2 cbr 210 ------- 3 1.0 2.0 258 260
+ 0.55439 1 2 cbr 210 ------- 3 1.0 2.0 259 261
d 0.55439 1 2 cbr 210 ------- 3 1.0 2.0 259 261
+ 0.5546 1 2 cbr 210 ------- 3 1.0 2.0 260 262
d 0.5546 1 2 cbr 210 ------- 3 1.0 2.0 260 262
+ 0.55481 1 2 cbr 210 ------- 3 1.0 2.0 261 263
d 0.55481 1 2 cbr 210 ------- 3 1.0 2.0 261 263
+ 0.55502 1 2 cbr 210 ------- 3 1.0 2.0 262 264
d 0.55502 1 2 cbr 210 ------- 3 1.0 2.0 262 264
+ 0.55523 1 2 cbr 210 ------- 3 1.0 2.0 263 265
d 0.55523 1 2 cbr 210 ------- 3 1.0 2.0 263 265
r 0.55536 1 2 cbr 210 ------- 3 1.0 2.0 26 28
- 0.55544 1 2 cbr 210 ------- 3 1.0 2.0 33 35
+ 0.55544 1 2 cbr 210 ------- 3 1.0 2.0 264 266
+ 0.55565 1 2 cbr 210 ------- 3 1.0 2.0 265 267
d 0.55565 1 2 cbr 210 ------- 3 1.0 2.0 265 267
+ 0.55586 1 2 cbr 210 ------- 3 1.0 2.0 266 268
d 0.55586 1 2 cbr 210 ------- 3 1.0 2.0 266 268
+ 0.55607 1 2 cbr 210 ------- 3 1.0 2.0 267 269
d 0.55607 1 2 cbr 210 ------- 3 1.0 2.0 267 269
+ 0.55628 1 2 cbr 210 ------- 3 1.0 2.0 268 270
d 0.55628 1 2 cbr 210 ------- 3 1.0 2.0 268 270
+ 0.55649 1 2 cbr 210 ------- 3 1.0 2.0 269 271
d 0.55649 1 2 cbr 210 ------- 3 1.0 2.0 269 271
+ 0.5567 1 2 cbr 210 ------- 3 1.0 2.0 270 272
d 0.5567 1 2 cbr 210 ------- 3 1.0 2.0 270 272
+ 0.55691 1 2 cbr 210 ------- 3 1.0 2.0 271 273
d 0.55691 1 2 cbr 210 ------- 3 1.0 2.0 271 273
r 0.55704 1 2 cbr 210 ------- 3 1.0 2.0 27 29
- 0.55712 1 2 cbr 210 ------- 3 1.0 2.0 34 36
+ 0.55712 1 2 cbr 210 ------- 3 1.0 2.0 272 274
+ 0.55733 1 2 cbr 210 ------- 3 1.0 2.0 273 275
d 0.55733 1 2 cbr 210 ------- 3 1.0 2.0 273 275
+ 0.55754 1 2 cbr 210 ------- 3 1.0 2.0 274 276
d 0.55754 1 2 cbr 210 ------- 3 1.0 2.0 274 276
+ 0.55775 1 2 cbr 210 ------- 3 1.0 2.0 275 277
d 0.55775 1 2 cbr 210 ------- 3 1.0 2.0 275 277
+ 0.55796 1 2 cbr 210 ------- 3 1.0 2.0 276 278
d 0.55796 1 2 cbr 210 ------- 3 1.0 2.0 276 278
+ 0.55817 1 2 cbr 210 ------- 3 1.0 2.0 277 279
d 0.55817 1 2 cbr 210 ------- 3 1.0 2.0 277 279
+ 0.55838 1 2 cbr 210 ------- 3 1.0 2.0 278 280
d 0.55838 1 2 cbr 210 ------- 3 1.0 2.0 278 280
+ 0.55859 1 2 cbr 210 ------- 3 1.0 2.0 279 281
d 0.55859 1 2 cbr 210 ------- 3 1.0 2.0 279 281
r 0.55872 1 2 cbr 210 ------- 3 1.0 2.0 28 30
- 0.5588 1 2 cbr 210 ------- 3 1.0 2.0 35 37
+ 0.5588 1 2 cbr 210 ------- 3 1.0 2.0 280 282
+ 0.55901 1 2 cbr 210 ------- 3 1.0 2.0 281 283
d 0.55901 1 2 cbr 210 ------- 3 1.0 2.0 281 283
+ 0.55922 1 2 cbr 210 ------- 3 1.0 2.0 282 284
d 0.55922 1 2 cbr 210 ------- 3 1.0 2.0 282 284
+ 0.55943 1 2 cbr 210 ------- 3 1.0 2.0 283 285
d 0.55943 1 2 cbr 210 ------- 3 1.0 2.0 283 285
+ 0.55964 1 2 cbr 210 ------- 3 1.0 2.0 284 286
d 0.55964 1 2 cbr 210 ------- 3 1.0 2.0 284 286
+ 0.55985 1 2 cbr 210 ------- 3 1.0 2.0 285 287
d 0.55985 1 2 cbr 210 ------- 3 1.0 2.0 285 287
+ 0.56006 1 2 cbr 210 ------- 3 1.0 2.0 286 288
d 0.56006 1 2 cbr 210 ------- 3 1.0 2.0 286 288
+ 0.56027 1 2 cbr 210 ------- 3 1.0 2.0 287 289
d 0.56027 1 2 cbr 210 ------- 3 1.0 2.0 287 289
r 0.5604 1 2 cbr 210 ------- 3 1.0 2.0 29 31
- 0.56048 1 2 cbr 210 ------- 3 1.0 2.0 36 38
+ 0.56048 1 2 cbr 210 ------- 3 1.0 2.0 288 290
+ 0.56069 1 2 cbr 210 ------- 3 1.0 2.0 289 291
d 0.56069 1 2 cbr 210 ------- 3 1.0 2.0 289 291
+ 0.5609 1 2 cbr 210 ------- 3 1.0 2.0 290 292
d 0.5609 1 2 cbr 210 ------- 3 1.0 2.0 290 292
+ 0.56111 1 2 cbr 210 ------- 3 1.0 2.0 291 293
d 0.56111 1 2 cbr 210 ------- 3 1.0 2.0 291 293
+ 0.56132 1 2 cbr 210 ------- 3 1.0 2.0 292 294
d 0.56132 1 2 cbr 210 ------- 3 1.0 2.0 292 294
+ 0.56153 1 2 cbr 210 ------- 3 1.0 2.0 293 295
d 0.56153 1 2 cbr 210 ------- 3 1.0 2.0 293 295
+ 0.56174 1 2 cbr 210 ------- 3 1.0 2.0 294 296
d 0.56174 1 2 cbr 210 ------- 3 1.0 2.0 294 296
+ 0.56195 1 2 cbr 210 ------- 3 1.0 2.0 295 297
d 0.56195 1 2 cbr 210 ------- 3 1.0 2.0 295 297
r 0.56208 1 2 cbr 210 ------- 3 1.0 2.0 30 32
- 0.56216 1 2 cbr 210 ------- 3 1.0 2.0 37 39
+ 0.56216 1 2 cbr 210 ------- 3 1.0 2.0 296 298
+ 0.56237 1 2 cbr 210 ------- 3 1.0 2.0 297 299
d 0.56237 1 2 cbr 210 ------- 3 1.0 2.0 297 299
+ 0.56258 1 2 cbr 210 ------- 3 1.0 2.0 298 300
d 0.56258 1 2 cbr 210 ------- 3 1.0 2.0 298 300
+ 0.56279 1 2 cbr 210 ------- 3 1.0 2.0 299 301
d 0.56279 1 2 cbr 210 ------- 3 1.0 2.0 299 301
+ 0.563 1 2 cbr 210 ------- 3 1.0 2.0 300 302
d 0.563 1 2 cbr 210 ------- 3 1.0 2.0 300 302
+ 0.56321 1 2 cbr 210 ------- 3 1.0 2.0 301 303
d 0.56321 1 2 cbr 210 ------- 3 1.0 2.0 301 303
+ 0.56342 1 2 cbr 210 ------- 3 1.0 2.0 302 304
d 0.56342 1 2 cbr 210 ------- 3 1.0 2.0 302 304
+ 0.56363 1 2 cbr 210 ------- 3 1.0 2.0 303 305
d 0.56363 1 2 cbr 210 ------- 3 1.0 2.0 303 305
r 0.56376 1 2 cbr 210 ------- 3 1.0 2.0 31 33
- 0.56384 1 2 cbr 210 ------- 3 1.0 2.0 38 40
+ 0.56384 1 2 cbr 210 ------- 3 1.0 2.0 304 306
+ 0.56405 1 2 cbr 210 ------- 3 1.0 2.0 305 307
d 0.56405 1 2 cbr 210 ------- 3 1.0 2.0 305 307
+ 0.56426 1 2 cbr 210 ------- 3 1.0 2.0 306 308
d 0.56426 1 2 cbr 210 ------- 3 1.0 2.0 306 308
+ 0.56447 1 2 cbr 210 ------- 3 1.0 2.0 307 309
d 0.56447 1 2 cbr 210 ------- 3 1.0 2.0 307 309
+ 0.56468 1 2 cbr 210 ------- 3 1.0 2.0 308 310
d 0.56468 1 2 cbr 210 ------- 3 1.0 2.0 308 310
+ 0.56489 1 2 cbr 210 ------- 3 1.0 2.0 309 311
d 0.56489 1 2 cbr 210 ------- 3 1.0 2.0 309 311
+ 0.5651 1 2 cbr 210 ------- 3 1.0 2.0 310 312
d 0.5651 1 2 cbr 210 ------- 3 1.0 2.0 310 312
+ 0.56531 1 2 cbr 210 ------- 3 1.0 2.0 311 313
d 0.56531 1 2 cbr 210 ------- 3 1.0 2.0 311 313
r 0.56544 1 2 cbr 210 ------- 3 1.0 2.0 32 34
- 0.56552 1 2 cbr 210 ------- 3 1.0 2.0 39 41
+ 0.56552 1 2 cbr 210 ------- 3 1.0 2.0 312 314
+ 0.56573 1 2 cbr 210 ------- 3 1.0 2.0 313 315
d 0.56573 1 2 cbr 210 ------- 3 1.0 2.0 313 315
+ 0.56594 1 2 cbr 210 ------- 3 1.0 2.0 314 316
d 0.56594 1 2 cbr 210 ------- 3 1.0 2.0 314 316
+ 0.56615 1 2 cbr 210 ------- 3 1.0 2.0 315 317
d 0.56615 1 2 cbr 210 ------- 3 1.0 2.0 315 317
+ 0.56636 1 2 cbr 210 ------- 3 1.0 2.0 316 318
d 0.56636 1 2 cbr 210 ------- 3 1.0 2.0 316 318
+ 0.56657 1 2 cbr 210 ------- 3 1.0 2.0 317 319
d 0.56657 1 2 cbr 210 ------- 3 1.0 2.0 317 319
+ 0.56678 1 2 cbr 210 ------- 3 1.0 2.0 318 320
d 0.56678 1 2 cbr 210 ------- 3 1.0 2.0 318 320
+ 0.56699 1 2 cbr 210 ------- 3 1.0 2.0 319 321
d 0.56699 1 2 cbr 210 ------- 3 1.0 2.0 319 321
r 0.56712 1 2 cbr 210 ------- 3 1.0 2.0 33 35
- 0.5672 1 2 cbr 210 ------- 3 1.0 2.0 40 42
+ 0.5672 1 2 cbr 210 ------- 3 1.0 2.0 320 322