+ 0.5 1 2 cbr 1000 ------- 3 1.0 2.0 0 0
- 0.5 1 2 cbr 1000 ------- 3 1.0 2.0 0 0
+ 0.5 1 2 cbr 1000 ------- 3 1.0 2.0 1 1
+ 0.5 0 1 tcp 40 ------- 1 0.0 3.0 0 2
- 0.5 0 1 tcp 40 ------- 1 0.0 3.0 0 2
+ 0.5 4 1 tcp 40 ------- 2 4.0 5.0 0 3
- 0.5 4 1 tcp 40 ------- 2 4.0 5.0 0 3
+ 0.502 1 2 cbr 1000 ------- 3 1.0 2.0 2 4
+ 0.502 1 2 cbr 1000 ------- 3 1.0 2.0 3 5
+ 0.504 1 2 cbr 1000 ------- 3 1.0 2.0 4 6
+ 0.504 1 2 cbr 1000 ------- 3 1.0 2.0 5 7
+ 0.506 1 2 cbr 1000 ------- 3 1.0 2.0 6 8
+ 0.506 1 2 cbr 1000 ------- 3 1.0 2.0 7 9
- 0.508 1 2 cbr 1000 ------- 3 1.0 2.0 1 1
+ 0.508 1 2 cbr 1000 ------- 3 1.0 2.0 8 10
+ 0.508 1 2 cbr 1000 ------- 3 1.0 2.0 9 11
+ 0.51 1 2 cbr 1000 ------- 3 1.0 2.0 10 12
+ 0.51 1 2 cbr 1000 ------- 3 1.0 2.0 11 13
r 0.510032 0 1 tcp 40 ------- 1 0.0 3.0 0 2
+ 0.510032 1 2 tcp 40 ------- 1 0.0 3.0 0 2
r 0.510032 4 1 tcp 40 ------- 2 4.0 5.0 0 3
+ 0.510032 1 2 tcp 40 ------- 2 4.0 5.0 0 3
+ 0.512 1 2 cbr 1000 ------- 3 1.0 2.0 12 14
+ 0.512 1 2 cbr 1000 ------- 3 1.0 2.0 13 15
+ 0.514 1 2 cbr 1000 ------- 3 1.0 2.0 14 16
+ 0.514 1 2 cbr 1000 ------- 3 1.0 2.0 15 17
- 0.516 1 2 cbr 1000 ------- 3 1.0 2.0 2 4
+ 0.516 1 2 cbr 1000 ------- 3 1.0 2.0 16 18
+ 0.516 1 2 cbr 1000 ------- 3 1.0 2.0 17 19
r 0.518 1 2 cbr 1000 ------- 3 1.0 2.0 0 0
+ 0.518 1 2 cbr 1000 ------- 3 1.0 2.0 18 20
+ 0.518 1 2 cbr 1000 ------- 3 1.0 2.0 19 21
+ 0.52 1 2 cbr 1000 ------- 3 1.0 2.0 20 22
+ 0.52 1 2 cbr 1000 ------- 3 1.0 2.0 21 23
+ 0.522 1 2 cbr 1000 ------- 3 1.0 2.0 22 24
+ 0.522 1 2 cbr 1000 ------- 3 1.0 2.0 23 25
- 0.524 1 2 cbr 1000 ------- 3 1.0 2.0 3 5
+ 0.524 1 2 cbr 1000 ------- 3 1.0 2.0 24 26
+ 0.524 1 2 cbr 1000 ------- 3 1.0 2.0 25 27
r 0.526 1 2 cbr 1000 ------- 3 1.0 2.0 1 1
+ 0.526 1 2 cbr 1000 ------- 3 1.0 2.0 26 28
+ 0.526 1 2 cbr 1000 ------- 3 1.0 2.0 27 29
+ 0.528 1 2 cbr 1000 ------- 3 1.0 2.0 28 30
+ 0.528 1 2 cbr 1000 ------- 3 1.0 2.0 29 31
+ 0.53 1 2 cbr 1000 ------- 3 1.0 2.0 30 32
+ 0.53 1 2 cbr 1000 ------- 3 1.0 2.0 31 33
- 0.532 1 2 cbr 1000 ------- 3 1.0 2.0 4 6
+ 0.532 1 2 cbr 1000 ------- 3 1.0 2.0 32 34
+ 0.532 1 2 cbr 1000 ------- 3 1.0 2.0 33 35
r 0.534 1 2 cbr 1000 ------- 3 1.0 2.0 2 4
+ 0.534 1 2 cbr 1000 ------- 3 1.0 2.0 34 36
+ 0.534 1 2 cbr 1000 ------- 3 1.0 2.0 35 37
+ 0.536 1 2 cbr 1000 ------- 3 1.0 2.0 36 38
+ 0.536 1 2 cbr 1000 ------- 3 1.0 2.0 37 39
+ 0.538 1 2 cbr 1000 ------- 3 1.0 2.0 38 40
+ 0.538 1 2 cbr 1000 ------- 3 1.0 2.0 39 41
- 0.54 1 2 cbr 1000 ------- 3 1.0 2.0 5 7
+ 0.54 1 2 cbr 1000 ------- 3 1.0 2.0 40 42
+ 0.54 1 2 cbr 1000 ------- 3 1.0 2.0 41 43
r 0.542 1 2 cbr 1000 ------- 3 1.0 2.0 3 5
+ 0.542 1 2 cbr 1000 ------- 3 1.0 2.0 42 44
+ 0.542 1 2 cbr 1000 ------- 3 1.0 2.0 43 45
+ 0.544 1 2 cbr 1000 ------- 3 1.0 2.0 44 46
+ 0.544 1 2 cbr 1000 ------- 3 1.0 2.0 45 47
+ 0.546 1 2 cbr 1000 ------- 3 1.0 2.0 46 48
+ 0.546 1 2 cbr 1000 ------- 3 1.0 2.0 47 49
- 0.548 1 2 cbr 1000 ------- 3 1.0 2.0 6 8
+ 0.548 1 2 cbr 1000 ------- 3 1.0 2.0 48 50
+ 0.548 1 2 cbr 1000 ------- 3 1.0 2.0 49 51
r 0.55 1 2 cbr 1000 ------- 3 1.0 2.0 4 6
+ 0.55 1 2 cbr 1000 ------- 3 1.0 2.0 50 52
+ 0.55 1 2 cbr 1000 ------- 3 1.0 2.0 51 53
+ 0.552 1 2 cbr 1000 ------- 3 1.0 2.0 52 54
+ 0.552 1 2 cbr 1000 ------- 3 1.0 2.0 53 55
+ 0.554 1 2 cbr 1000 ------- 3 1.0 2.0 54 56
d 0.554 1 2 cbr 1000 ------- 3 1.0 2.0 54 56
+ 0.554 1 2 cbr 1000 ------- 3 1.0 2.0 55 57
d 0.554 1 2 cbr 1000 ------- 3 1.0 2.0 55 57
- 0.556 1 2 cbr 1000 ------- 3 1.0 2.0 7 9
+ 0.556 1 2 cbr 1000 ------- 3 1.0 2.0 56 58
+ 0.556 1 2 cbr 1000 ------- 3 1.0 2.0 57 59
d 0.556 1 2 cbr 1000 ------- 3 1.0 2.0 57 59
r 0.558 1 2 cbr 1000 ------- 3 1.0 2.0 5 7
+ 0.558 1 2 cbr 1000 ------- 3 1.0 2.0 58 60
d 0.558 1 2 cbr 1000 ------- 3 1.0 2.0 58 60
+ 0.558 1 2 cbr 1000 ------- 3 1.0 2.0 59 61
d 0.558 1 2 cbr 1000 ------- 3 1.0 2.0 59 61
+ 0.56 1 2 cbr 1000 ------- 3 1.0 2.0 60 62
d 0.56 1 2 cbr 1000 ------- 3 1.0 2.0 60 62
+ 0.56 1 2 cbr 1000 ------- 3 1.0 2.0 61 63
d 0.56 1 2 cbr 1000 ------- 3 1.0 2.0 61 63
+ 0.562 1 2 cbr 1000 ------- 3 1.0 2.0 62 64
d 0.562 1 2 cbr 1000 ------- 3 1.0 2.0 62 64
+ 0.562 1 2 cbr 1000 ------- 3 1.0 2.0 63 65
d 0.562 1 2 cbr 1000 ------- 3 1.0 2.0 63 65
- 0.564 1 2 cbr 1000 ------- 3 1.0 2.0 8 10
+ 0.564 1 2 cbr 1000 ------- 3 1.0 2.0 64 66
+ 0.564 1 2 cbr 1000 ------- 3 1.0 2.0 65 67
d 0.564 1 2 cbr 1000 ------- 3 1.0 2.0 65 67
r 0.566 1 2 cbr 1000 ------- 3 1.0 2.0 6 8
+ 0.566 1 2 cbr 1000 ------- 3 1.0 2.0 66 68
d 0.566 1 2 cbr 1000 ------- 3 1.0 2.0 66 68
+ 0.566 1 2 cbr 1000 ------- 3 1.0 2.0 67 69
d 0.566 1 2 cbr 1000 ------- 3 1.0 2.0 67 69
+ 0.568 1 2 cbr 1000 ------- 3 1.0 2.0 68 70
d 0.568 1 2 cbr 1000 ------- 3 1.0 2.0 68 70
+ 0.568 1 2 cbr 1000 ------- 3 1.0 2.0 69 71
d 0.568 1 2 cbr 1000 ------- 3 1.0 2.0 69 71
+ 0.57 1 2 cbr 1000 ------- 3 1.0 2.0 70 72
d 0.57 1 2 cbr 1000 ------- 3 1.0 2.0 70 72
+ 0.57 1 2 cbr 1000 ------- 3 1.0 2.0 71 73
d 0.57 1 2 cbr 1000 ------- 3 1.0 2.0 71 73
- 0.572 1 2 cbr 1000 ------- 3 1.0 2.0 9 11
+ 0.572 1 2 cbr 1000 ------- 3 1.0 2.0 72 74
+ 0.572 1 2 cbr 1000 ------- 3 1.0 2.0 73 75
d 0.572 1 2 cbr 1000 ------- 3 1.0 2.0 73 75
r 0.574 1 2 cbr 1000 ------- 3 1.0 2.0 7 9
+ 0.574 1 2 cbr 1000 ------- 3 1.0 2.0 74 76
d 0.574 1 2 cbr 1000 ------- 3 1.0 2.0 74 76
+ 0.574 1 2 cbr 1000 ------- 3 1.0 2.0 75 77
d 0.574 1 2 cbr 1000 ------- 3 1.0 2.0 75 77
+ 0.576 1 2 cbr 1000 ------- 3 1.0 2.0 76 78
d 0.576 1 2 cbr 1000 ------- 3 1.0 2.0 76 78
+ 0.576 1 2 cbr 1000 ------- 3 1.0 2.0 77 79
d 0.576 1 2 cbr 1000 ------- 3 1.0 2.0 77 79
+ 0.578 1 2 cbr 1000 ------- 3 1.0 2.0 78 80
d 0.578 1 2 cbr 1000 ------- 3 1.0 2.0 78 80
+ 0.578 1 2 cbr 1000 ------- 3 1.0 2.0 79 81
d 0.578 1 2 cbr 1000 ------- 3 1.0 2.0 79 81
- 0.58 1 2 cbr 1000 ------- 3 1.0 2.0 10 12
+ 0.58 1 2 cbr 1000 ------- 3 1.0 2.0 80 82
+ 0.58 1 2 cbr 1000 ------- 3 1.0 2.0 81 83
d 0.58 1 2 cbr 1000 ------- 3 1.0 2.0 81 83
r 0.582 1 2 cbr 1000 ------- 3 1.0 2.0 8 10
+ 0.582 1 2 cbr 1000 ------- 3 1.0 2.0 82 84
d 0.582 1 2 cbr 1000 ------- 3 1.0 2.0 82 84
+ 0.582 1 2 cbr 1000 ------- 3 1.0 2.0 83 85
d 0.582 1 2 cbr 1000 ------- 3 1.0 2.0 83 85
+ 0.584 1 2 cbr 1000 ------- 3 1.0 2.0 84 86
d 0.584 1 2 cbr 1000 ------- 3 1.0 2.0 84 86
+ 0.584 1 2 cbr 1000 ------- 3 1.0 2.0 85 87
d 0.584 1 2 cbr 1000 ------- 3 1.0 2.0 85 87
+ 0.586 1 2 cbr 1000 ------- 3 1.0 2.0 86 88
d 0.586 1 2 cbr 1000 ------- 3 1.0 2.0 86 88
+ 0.586 1 2 cbr 1000 ------- 3 1.0 2.0 87 89
d 0.586 1 2 cbr 1000 ------- 3 1.0 2.0 87 89
- 0.588 1 2 cbr 1000 ------- 3 1.0 2.0 11 13
+ 0.588 1 2 cbr 1000 ------- 3 1.0 2.0 88 90
+ 0.588 1 2 cbr 1000 ------- 3 1.0 2.0 89 91
d 0.588 1 2 cbr 1000 ------- 3 1.0 2.0 89 91
r 0.59 1 2 cbr 1000 ------- 3 1.0 2.0 9 11
+ 0.59 1 2 cbr 1000 ------- 3 1.0 2.0 90 92
d 0.59 1 2 cbr 1000 ------- 3 1.0 2.0 90 92
+ 0.59 1 2 cbr 1000 ------- 3 1.0 2.0 91 93
d 0.59 1 2 cbr 1000 ------- 3 1.0 2.0 91 93
+ 0.592 1 2 cbr 1000 ------- 3 1.0 2.0 92 94
d 0.592 1 2 cbr 1000 ------- 3 1.0 2.0 92 94
+ 0.592 1 2 cbr 1000 ------- 3 1.0 2.0 93 95
d 0.592 1 2 cbr 1000 ------- 3 1.0 2.0 93 95
+ 0.594 1 2 cbr 1000 ------- 3 1.0 2.0 94 96
d 0.594 1 2 cbr 1000 ------- 3 1.0 2.0 94 96
+ 0.594 1 2 cbr 1000 ------- 3 1.0 2.0 95 97
d 0.594 1 2 cbr 1000 ------- 3 1.0 2.0 95 97
- 0.596 1 2 tcp 40 ------- 1 0.0 3.0 0 2
+ 0.596 1 2 cbr 1000 ------- 3 1.0 2.0 96 98
+ 0.596 1 2 cbr 1000 ------- 3 1.0 2.0 97 99
d 0.596 1 2 cbr 1000 ------- 3 1.0 2.0 97 99
- 0.59632 1 2 tcp 40 ------- 2 4.0 5.0 0 3
- 0.59664 1 2 cbr 1000 ------- 3 1.0 2.0 12 14
r 0.598 1 2 cbr 1000 ------- 3 1.0 2.0 10 12
+ 0.598 1 2 cbr 1000 ------- 3 1.0 2.0 98 100
+ 0.598 1 2 cbr 1000 ------- 3 1.0 2.0 99 101
+ 0.6 1 2 cbr 1000 ------- 3 1.0 2.0 100 102
d 0.6 1 2 cbr 1000 ------- 3 1.0 2.0 100 102
+ 0.6 1 2 cbr 1000 ------- 3 1.0 2.0 101 103
d 0.6 1 2 cbr 1000 ------- 3 1.0 2.0 101 103
+ 0.602 1 2 cbr 1000 ------- 3 1.0 2.0 102 104
d 0.602 1 2 cbr 1000 ------- 3 1.0 2.0 102 104
+ 0.602 1 2 cbr 1000 ------- 3 1.0 2.0 103 105
d 0.602 1 2 cbr 1000 ------- 3 1.0 2.0 103 105
+ 0.604 1 2 cbr 1000 ------- 3 1.0 2.0 104 106
d 0.604 1 2 cbr 1000 ------- 3 1.0 2.0 104 106
+ 0.604 1 2 cbr 1000 ------- 3 1.0 2.0 105 107
d 0.604 1 2 cbr 1000 ------- 3 1.0 2.0 105 107
- 0.60464 1 2 cbr 1000 ------- 3 1.0 2.0 13 15
r 0.606 1 2 cbr 1000 ------- 3 1.0 2.0 11 13
+ 0.606 1 2 cbr 1000 ------- 3 1.0 2.0 106 108
+ 0.606 1 2 cbr 1000 ------- 3 1.0 2.0 107 109
d 0.606 1 2 cbr 1000 ------- 3 1.0 2.0 107 109
r 0.60632 1 2 tcp 40 ------- 1 0.0 3.0 0 2
+ 0.60632 2 3 tcp 40 ------- 1 0.0 3.0 0 2
- 0.60632 2 3 tcp 40 ------- 1 0.0 3.0 0 2
r 0.60664 1 2 tcp 40 ------- 2 4.0 5.0 0 3
+ 0.60664 2 5 tcp 40 ------- 2 4.0 5.0 0 3
- 0.60664 2 5 tcp 40 ------- 2 4.0 5.0 0 3
+ 0.608 1 2 cbr 1000 ------- 3 1.0 2.0 108 110
d 0.608 1 2 cbr 1000 ------- 3 1.0 2.0 108 110
+ 0.608 1 2 cbr 1000 ------- 3 1.0 2.0 109 111
d 0.608 1 2 cbr 1000 ------- 3 1.0 2.0 109 111
+ 0.61 1 2 cbr 1000 ------- 3 1.0 2.0 110 112
d 0.61 1 2 cbr 1000 ------- 3 1.0 2.0 110 112
+ 0.61 1 2 cbr 1000 ------- 3 1.0 2.0 111 113
d 0.61 1 2 cbr 1000 ------- 3 1.0 2.0 111 113
+ 0.612 1 2 cbr 1000 ------- 3 1.0 2.0 112 114
d 0.612 1 2 cbr 1000 ------- 3 1.0 2.0 112 114
+ 0.612 1 2 cbr 1000 ------- 3 1.0 2.0 113 115
d 0.612 1 2 cbr 1000 ------- 3 1.0 2.0 113 115
- 0.61264 1 2 cbr 1000 ------- 3 1.0 2.0 14 16
+ 0.614 1 2 cbr 1000 ------- 3 1.0 2.0 114 116
+ 0.614 1 2 cbr 1000 ------- 3 1.0 2.0 115 117
d 0.614 1 2 cbr 1000 ------- 3 1.0 2.0 115 117
r 0.61464 1 2 cbr 1000 ------- 3 1.0 2.0 12 14
+ 0.616 1 2 cbr 1000 ------- 3 1.0 2.0 116 118
d 0.616 1 2 cbr 1000 ------- 3 1.0 2.0 116 118
+ 0.616 1 2 cbr 1000 ------- 3 1.0 2.0 117 119
d 0.616 1 2 cbr 1000 ------- 3 1.0 2.0 117 119
r 0.616352 2 3 tcp 40 ------- 1 0.0 3.0 0 2
+ 0.616352 3 2 ack 40 ------- 1 3.0 0.0 0 120
- 0.616352 3 2 ack 40 ------- 1 3.0 0.0 0 120
r 0.616672 2 5 tcp 40 ------- 2 4.0 5.0 0 3
+ 0.616672 5 2 ack 40 ------- 2 5.0 4.0 0 121
- 0.616672 5 2 ack 40 ------- 2 5.0 4.0 0 121
+ 0.618 1 2 cbr 1000 ------- 3 1.0 2.0 118 122
d 0.618 1 2 cbr 1000 ------- 3 1.0 2.0 118 122
+ 0.618 1 2 cbr 1000 ------- 3 1.0 2.0 119 123
d 0.618 1 2 cbr 1000 ------- 3 1.0 2.0 119 123
+ 0.62 1 2 cbr 1000 ------- 3 1.0 2.0 120 124
d 0.62 1 2 cbr 1000 ------- 3 1.0 2.0 120 124
+ 0.62 1 2 cbr 1000 ------- 3 1.0 2.0 121 125
d 0.62 1 2 cbr 1000 ------- 3 1.0 2.0 121 125
- 0.62064 1 2 cbr 1000 ------- 3 1.0 2.0 15 17
+ 0.622 1 2 cbr 1000 ------- 3 1.0 2.0 122 126
+ 0.622 1 2 cbr 1000 ------- 3 1.0 2.0 123 127
d 0.622 1 2 cbr 1000 ------- 3 1.0 2.0 123 127
r 0.62264 1 2 cbr 1000 ------- 3 1.0 2.0 13 15
+ 0.624 1 2 cbr 1000 ------- 3 1.0 2.0 124 128
d 0.624 1 2 cbr 1000 ------- 3 1.0 2.0 124 128
+ 0.624 1 2 cbr 1000 ------- 3 1.0 2.0 125 129
d 0.624 1 2 cbr 1000 ------- 3 1.0 2.0 125 129
+ 0.626 1 2 cbr 1000 ------- 3 1.0 2.0 126 130
d 0.626 1 2 cbr 1000 ------- 3 1.0 2.0 126 130
+ 0.626 1 2 cbr 1000 ------- 3 1.0 2.0 127 131
d 0.626 1 2 cbr 1000 ------- 3 1.0 2.0 127 131
r 0.626384 3 2 ack 40 ------- 1 3.0 0.0 0 120
+ 0.626384 2 1 ack 40 ------- 1 3.0 0.0 0 120
- 0.626384 2 1 ack 40 ------- 1 3.0 0.0 0 120
r 0.626704 5 2 ack 40 ------- 2 5.0 4.0 0 121
+ 0.626704 2 1 ack 40 ------- 2 5.0 4.0 0 121
- 0.626704 2 1 ack 40 ------- 2 5.0 4.0 0 121
+ 0.628 1 2 cbr 1000 ------- 3 1.0 2.0 128 132
d 0.628 1 2 cbr 1000 ------- 3 1.0 2.0 128 132
+ 0.628 1 2 cbr 1000 ------- 3 1.0 2.0 129 133
d 0.628 1 2 cbr 1000 ------- 3 1.0 2.0 129 133
- 0.62864 1 2 cbr 1000 ------- 3 1.0 2.0 16 18
+ 0.63 1 2 cbr 1000 ------- 3 1.0 2.0 130 134
+ 0.63 1 2 cbr 1000 ------- 3 1.0 2.0 131 135
d 0.63 1 2 cbr 1000 ------- 3 1.0 2.0 131 135
r 0.63064 1 2 cbr 1000 ------- 3 1.0 2.0 14 16
+ 0.632 1 2 cbr 1000 ------- 3 1.0 2.0 132 136
d 0.632 1 2 cbr 1000 ------- 3 1.0 2.0 132 136
+ 0.632 1 2 cbr 1000 ------- 3 1.0 2.0 133 137
d 0.632 1 2 cbr 1000 ------- 3 1.0 2.0 133 137
+ 0.634 1 2 cbr 1000 ------- 3 1.0 2.0 134 138
d 0.634 1 2 cbr 1000 ------- 3 1.0 2.0 134 138
+ 0.634 1 2 cbr 1000 ------- 3 1.0 2.0 135 139
d 0.634 1 2 cbr 1000 ------- 3 1.0 2.0 135 139
+ 0.636 1 2 cbr 1000 ------- 3 1.0 2.0 136 140
d 0.636 1 2 cbr 1000 ------- 3 1.0 2.0 136 140
+ 0.636 1 2 cbr 1000 ------- 3 1.0 2.0 137 141
d 0.636 1 2 cbr 1000 ------- 3 1.0 2.0 137 141
- 0.63664 1 2 cbr 1000 ------- 3 1.0 2.0 17 19
r 0.636704 2 1 ack 40 ------- 1 3.0 0.0 0 120
+ 0.636704 1 0 ack 40 ------- 1 3.0 0.0 0 120
- 0.636704 1 0 ack 40 ------- 1 3.0 0.0 0 120
r 0.637024 2 1 ack 40 ------- 2 5.0 4.0 0 121
+ 0.637024 1 4 ack 40 ------- 2 5.0 4.0 0 121
- 0.637024 1 4 ack 40 ------- 2 5.0 4.0 0 121
+ 0.638 1 2 cbr 1000 ------- 3 1.0 2.0 138 142
+ 0.638 1 2 cbr 1000 ------- 3 1.0 2.0 139 143
d 0.638 1 2 cbr 1000 ------- 3 1.0 2.0 139 143
r 0.63864 1 2 cbr 1000 ------- 3 1.0 2.0 15 17
+ 0.64 1 2 cbr 1000 ------- 3 1.0 2.0 140 144
d 0.64 1 2 cbr 1000 ------- 3 1.0 2.0 140 144
+ 0.64 1 2 cbr 1000 ------- 3 1.0 2.0 141 145
d 0.64 1 2 cbr 1000 ------- 3 1.0 2.0 141 145
+ 0.642 1 2 cbr 1000 ------- 3 1.0 2.0 142 146
d 0.642 1 2 cbr 1000 ------- 3 1.0 2.0 142 146
+ 0.642 1 2 cbr 1000 ------- 3 1.0 2.0 143 147
d 0.642 1 2 cbr 1000 ------- 3 1.0 2.0 143 147
+ 0.644 1 2 cbr 1000 ------- 3 1.0 2.0 144 148
d 0.644 1 2 cbr 1000 ------- 3 1.0 2.0 144 148
+ 0.644 1 2 cbr 1000 ------- 3 1.0 2.0 145 149
d 0.644 1 2 cbr 1000 ------- 3 1.0 2.0 145 149
- 0.64464 1 2 cbr 1000 ------- 3 1.0 2.0 18 20
+ 0.646 1 2 cbr 1000 ------- 3 1.0 2.0 146 150
+ 0.646 1 2 cbr 1000 ------- 3 1.0 2.0 147 151
d 0.646 1 2 cbr 1000 ------- 3 1.0 2.0 147 151
r 0.64664 1 2 cbr 1000 ------- 3 1.0 2.0 16 18
r 0.646736 1 0 ack 40 ------- 1 3.0 0.0 0 120
+ 0.646736 0 1 tcp 1040 ------- 1 0.0 3.0 1 152
- 0.646736 0 1 tcp 1040 ------- 1 0.0 3.0 1 152
+ 0.646736 0 1 tcp 1040 ------- 1 0.0 3.0 2 153
r 0.647056 1 4 ack 40 ------- 2 5.0 4.0 0 121
+ 0.647056 4 1 tcp 1040 ------- 2 4.0 5.0 1 154
- 0.647056 4 1 tcp 1040 ------- 2 4.0 5.0 1 154
+ 0.647056 4 1 tcp 1040 ------- 2 4.0 5.0 2 155
- 0.647568 0 1 tcp 1040 ------- 1 0.0 3.0 2 153
- 0.647888 4 1 tcp 1040 ------- 2 4.0 5.0 2 155
+ 0.648 1 2 cbr 1000 ------- 3 1.0 2.0 148 156
d 0.648 1 2 cbr 1000 ------- 3 1.0 2.0 148 156
+ 0.648 1 2 cbr 1000 ------- 3 1.0 2.0 149 157
d 0.648 1 2 cbr 1000 ------- 3 1.0 2.0 149 157
+ 0.65 1 2 cbr 1000 ------- 3 1.0 2.0 150 158
d 0.65 1 2 cbr 1000 ------- 3 1.0 2.0 150 158
+ 0.65 1 2 cbr 1000 ------- 3 1.0 2.0 151 159
d 0.65 1 2 cbr 1000 ------- 3 1.0 2.0 151 159
+ 0.652 1 2 cbr 1000 ------- 3 1.0 2.0 152 160
d 0.652 1 2 cbr 1000 ------- 3 1.0 2.0 152 160
+ 0.652 1 2 cbr 1000 ------- 3 1.0 2.0 153 161
d 0.652 1 2 cbr 1000 ------- 3 1.0 2.0 153 161
- 0.65264 1 2 cbr 1000 ------- 3 1.0 2.0 19 21
+ 0.654 1 2 cbr 1000 ------- 3 1.0 2.0 154 162
+ 0.654 1 2 cbr 1000 ------- 3 1.0 2.0 155 163
d 0.654 1 2 cbr 1000 ------- 3 1.0 2.0 155 163
r 0.65464 1 2 cbr 1000 ------- 3 1.0 2.0 17 19
+ 0.656 1 2 cbr 1000 ------- 3 1.0 2.0 156 164
d 0.656 1 2 cbr 1000 ------- 3 1.0 2.0 156 164
+ 0.656 1 2 cbr 1000 ------- 3 1.0 2.0 157 165
d 0.656 1 2 cbr 1000 ------- 3 1.0 2.0 157 165
r 0.657568 0 1 tcp 1040 ------- 1 0.0 3.0 1 152
+ 0.657568 1 2 tcp 1040 ------- 1 0.0 3.0 1 152
d 0.657568 1 2 tcp 1040 ------- 1 0.0 3.0 1 152
r 0.657888 4 1 tcp 1040 ------- 2 4.0 5.0 1 154
+ 0.657888 1 2 tcp 1040 ------- 2 4.0 5.0 1 154
d 0.657888 1 2 tcp 1040 ------- 2 4.0 5.0 1 154
+ 0.658 1 2 cbr 1000 ------- 3 1.0 2.0 158 166
d 0.658 1 2 cbr 1000 ------- 3 1.0 2.0 158 166
+ 0.658 1 2 cbr 1000 ------- 3 1.0 2.0 159 167
d 0.658 1 2 cbr 1000 ------- 3 1.0 2.0 159 167
r 0.6584 0 1 tcp 1040 ------- 1 0.0 3.0 2 153
+ 0.6584 1 2 tcp 1040 ------- 1 0.0 3.0 2 153
d 0.6584 1 2 tcp 1040 ------- 1 0.0 3.0 2 153
r 0.65872 4 1 tcp 1040 ------- 2 4.0 5.0 2 155
+ 0.65872 1 2 tcp 1040 ------- 2 4.0 5.0 2 155
d 0.65872 1 2 tcp 1040 ------- 2 4.0 5.0 2 155
+ 0.66 1 2 cbr 1000 ------- 3 1.0 2.0 160 168
d 0.66 1 2 cbr 1000 ------- 3 1.0 2.0 160 168
+ 0.66 1 2 cbr 1000 ------- 3 1.0 2.0 161 169
d 0.66 1 2 cbr 1000 ------- 3 1.0 2.0 161 169
- 0.66064 1 2 cbr 1000 ------- 3 1.0 2.0 20 22
+ 0.662 1 2 cbr 1000 ------- 3 1.0 2.0 162 170
+ 0.662 1 2 cbr 1000 ------- 3 1.0 2.0 163 171
d 0.662 1 2 cbr 1000 ------- 3 1.0 2.0 163 171
r 0.66264 1 2 cbr 1000 ------- 3 1.0 2.0 18 20
+ 0.664 1 2 cbr 1000 ------- 3 1.0 2.0 164 172
d 0.664 1 2 cbr 1000 ------- 3 1.0 2.0 164 172
+ 0.664 1 2 cbr 1000 ------- 3 1.0 2.0 165 173
d 0.664 1 2 cbr 1000 ------- 3 1.0 2.0 165 173
+ 0.666 1 2 cbr 1000 ------- 3 1.0 2.0 166 174
d 0.666 1 2 cbr 1000 ------- 3 1.0 2.0 166 174
+ 0.666 1 2 cbr 1000 ------- 3 1.0 2.0 167 175
d 0.666 1 2 cbr 1000 ------- 3 1.0 2.0 167 175
+ 0.668 1 2 cbr 1000 ------- 3 1.0 2.0 168 176
d 0.668 1 2 cbr 1000 ------- 3 1.0 2.0 168 176
+ 0.668 1 2 cbr 1000 ------- 3 1.0 2.0 169 177
d 0.668 1 2 cbr 1000 ------- 3 1.0 2.0 169 177
- 0.66864 1 2 cbr 1000 ------- 3 1.0 2.0 21 23
+ 0.67 1 2 cbr 1000 ------- 3 1.0 2.0 170 178
+ 0.67 1 2 cbr 1000 ------- 3 1.0 2.0 171 179
d 0.67 1 2 cbr 1000 ------- 3 1.0 2.0 171 179
r 0.67064 1 2 cbr 1000 ------- 3 1.0 2.0 19 21
+ 0.672 1 2 cbr 1000 ------- 3 1.0 2.0 172 180
d 0.672 1 2 cbr 1000 ------- 3 1.0 2.0 172 180
+ 0.672 1 2 cbr 1000 ------- 3 1.0 2.0 173 181
d 0.672 1 2 cbr 1000 ------- 3 1.0 2.0 173 181
+ 0.674 1 2 cbr 1000 ------- 3 1.0 2.0 174 182
d 0.674 1 2 cbr 1000 ------- 3 1.0 2.0 174 182
+ 0.674 1 2 cbr 1000 ------- 3 1.0 2.0 175 183
d 0.674 1 2 cbr 1000 ------- 3 1.0 2.0 175 183
+ 0.676 1 2 cbr 1000 ------- 3 1.0 2.0 176 184
d 0.676 1 2 cbr 1000 ------- 3 1.0 2.0 176 184
+ 0.676 1 2 cbr 1000 ------- 3 1.0 2.0 177 185
d 0.676 1 2 cbr 1000 ------- 3 1.0 2.0 177 185
- 0.67664 1 2 cbr 1000 ------- 3 1.0 2.0 22 24
+ 0.678 1 2 cbr 1000 ------- 3 1.0 2.0 178 186
+ 0.678 1 2 cbr 1000 ------- 3 1.0 2.0 179 187
d 0.678 1 2 cbr 1000 ------- 3 1.0 2.0 179 187
r 0.67864 1 2 cbr 1000 ------- 3 1.0 2.0 20 22
+ 0.68 1 2 cbr 1000 ------- 3 1.0 2.0 180 188
d 0.68 1 2 cbr 1000 ------- 3 1.0 2.0 180 188
+ 0.68 1 2 cbr 1000 ------- 3 1.0 2.0 181 189
d 0.68 1 2 cbr 1000 ------- 3 1.0 2.0 181 189
+ 0.682 1 2 cbr 1000 ------- 3 1.0 2.0 182 190
d 0.682 1 2 cbr 1000 ------- 3 1.0 2.0 182 190
+ 0.682 1 2 cbr 1000 ------- 3 1.0 2.0 183 191
d 0.682 1 2 cbr 1000 ------- 3 1.0 2.0 183 191
+ 0.684 1 2 cbr 1000 ------- 3 1.0 2.0 184 192
d 0.684 1 2 cbr 1000 ------- 3 1.0 2.0 184 192
+ 0.684 1 2 cbr 1000 ------- 3 1.0 2.0 185 193
d 0.684 1 2 cbr 1000 ------- 3 1.0 2.0 185 193
- 0.68464 1 2 cbr 1000 ------- 3 1.0 2.0 23 25
+ 0.686 1 2 cbr 1000 ------- 3 1.0 2.0 186 194
+ 0.686 1 2 cbr 1000 ------- 3 1.0 2.0 187 195
d 0.686 1 2 cbr 1000 ------- 3 1.0 2.0 187 195
r 0.68664 1 2 cbr 1000 ------- 3 1.0 2.0 21 23
+ 0.688 1 2 cbr 1000 ------- 3 1.0 2.0 188 196
d 0.688 1 2 cbr 1000 ------- 3 1.0 2.0 188 196
+ 0.688 1 2 cbr 1000 ------- 3 1.0 2.0 189 197
d 0.688 1 2 cbr 1000 ------- 3 1.0 2.0 189 197
+ 0.69 1 2 cbr 1000 ------- 3 1.0 2.0 190 198
d 0.69 1 2 cbr 1000 ------- 3 1.0 2.0 190 198
+ 0.69 1 2 cbr 1000 ------- 3 1.0 2.0 191 199
d 0.69 1 2 cbr 1000 ------- 3 1.0 2.0 191 199
+ 0.692 1 2 cbr 1000 ------- 3 1.0 2.0 192 200
d 0.692 1 2 cbr 1000 ------- 3 1.0 2.0 192 200
+ 0.692 1 2 cbr 1000 ------- 3 1.0 2.0 193 201
d 0.692 1 2 cbr 1000 ------- 3 1.0 2.0 193 201
- 0.69264 1 2 cbr 1000 ------- 3 1.0 2.0 24 26
+ 0.694 1 2 cbr 1000 ------- 3 1.0 2.0 194 202
+ 0.694 1 2 cbr 1000 ------- 3 1.0 2.0 195 203
d 0.694 1 2 cbr 1000 ------- 3 1.0 2.0 195 203
r 0.69464 1 2 cbr 1000 ------- 3 1.0 2.0 22 24
+ 0.696 1 2 cbr 1000 ------- 3 1.0 2.0 196 204
d 0.696 1 2 cbr 1000 ------- 3 1.0 2.0 196 204
+ 0.696 1 2 cbr 1000 ------- 3 1.0 2.0 197 205
d 0.696 1 2 cbr 1000 ------- 3 1.0 2.0 197 205
+ 0.698 1 2 cbr 1000 ------- 3 1.0 2.0 198 206
d 0.698 1 2 cbr 1000 ------- 3 1.0 2.0 198 206
+ 0.698 1 2 cbr 1000 ------- 3 1.0 2.0 199 207
d 0.698 1 2 cbr 1000 ------- 3 1.0 2.0 199 207
+ 0.7 1 2 cbr 1000 ------- 3 1.0 2.0 200 208
d 0.7 1 2 cbr 1000 ------- 3 1.0 2.0 200 208
+ 0.7 1 2 cbr 1000 ------- 3 1.0 2.0 201 209
d 0.7 1 2 cbr 1000 ------- 3 1.0 2.0 201 209
- 0.70064 1 2 cbr 1000 ------- 3 1.0 2.0 25 27
+ 0.702 1 2 cbr 1000 ------- 3 1.0 2.0 202 210
+ 0.702 1 2 cbr 1000 ------- 3 1.0 2.0 203 211
d 0.702 1 2 cbr 1000 ------- 3 1.0 2.0 203 211
r 0.70264 1 2 cbr 1000 ------- 3 1.0 2.0 23 25
+ 0.704 1 2 cbr 1000 ------- 3 1.0 2.0 204 212
d 0.704 1 2 cbr 1000 ------- 3 1.0 2.0 204 212
+ 0.704 1 2 cbr 1000 ------- 3 1.0 2.0 205 213
d 0.704 1 2 cbr 1000 ------- 3 1.0 2.0 205 213
+ 0.706 1 2 cbr 1000 ------- 3 1.0 2.0 206 214
d 0.706 1 2 cbr 1000 ------- 3 1.0 2.0 206 214
+ 0.706 1 2 cbr 1000 ------- 3 1.0 2.0 207 215
d 0.706 1 2 cbr 1000 ------- 3 1.0 2.0 207 215
+ 0.708 1 2 cbr 1000 ------- 3 1.0 2.0 208 216
d 0.708 1 2 cbr 1000 ------- 3 1.0 2.0 208 216
+ 0.708 1 2 cbr 1000 ------- 3 1.0 2.0 209 217
d 0.708 1 2 cbr 1000 ------- 3 1.0 2.0 209 217
- 0.70864 1 2 cbr 1000 ------- 3 1.0 2.0 26 28
+ 0.71 1 2 cbr 1000 ------- 3 1.0 2.0 210 218
+ 0.71 1 2 cbr 1000 ------- 3 1.0 2.0 211 219
d 0.71 1 2 cbr 1000 ------- 3 1.0 2.0 211 219
r 0.71064 1 2 cbr 1000 ------- 3 1.0 2.0 24 26
+ 0.712 1 2 cbr 1000 ------- 3 1.0 2.0 212 220
d 0.712 1 2 cbr 1000 ------- 3 1.0 2.0 212 220
+ 0.712 1 2 cbr 1000 ------- 3 1.0 2.0 213 221
d 0.712 1 2 cbr 1000 ------- 3 1.0 2.0 213 221
+ 0.714 1 2 cbr 1000 ------- 3 1.0 2.0 214 222
d 0.714 1 2 cbr 1000 ------- 3 1.0 2.0 214 222
+ 0.714 1 2 cbr 1000 ------- 3 1.0 2.0 215 223
d 0.714 1 2 cbr 1000 ------- 3 1.0 2.0 215 223
+ 0.716 1 2 cbr 1000 ------- 3 1.0 2.0 216 224
d 0.716 1 2 cbr 1000 ------- 3 1.0 2.0 216 224
+ 0.716 1 2 cbr 1000 ------- 3 1.0 2.0 217 225
d 0.716 1 2 cbr 1000 ------- 3 1.0 2.0 217 225
- 0.71664 1 2 cbr 1000 ------- 3 1.0 2.0 27 29
+ 0.718 1 2 cbr 1000 ------- 3 1.0 2.0 218 226
+ 0.718 1 2 cbr 1000 ------- 3 1.0 2.0 219 227
d 0.718 1 2 cbr 1000 ------- 3 1.0 2.0 219 227
r 0.71864 1 2 cbr 1000 ------- 3 1.0 2.0 25 27
+ 0.72 1 2 cbr 1000 ------- 3 1.0 2.0 220 228
d 0.72 1 2 cbr 1000 ------- 3 1.0 2.0 220 228
+ 0.72 1 2 cbr 1000 ------- 3 1.0 2.0 221 229
d 0.72 1 2 cbr 1000 ------- 3 1.0 2.0 221 229
+ 0.722 1 2 cbr 1000 ------- 3 1.0 2.0 222 230
d 0.722 1 2 cbr 1000 ------- 3 1.0 2.0 222 230
+ 0.722 1 2 cbr 1000 ------- 3 1.0 2.0 223 231
d 0.722 1 2 cbr 1000 ------- 3 1.0 2.0 223 231
+ 0.724 1 2 cbr 1000 ------- 3 1.0 2.0 224 232
d 0.724 1 2 cbr 1000 ------- 3 1.0 2.0 224 232
+ 0.724 1 2 cbr 1000 ------- 3 1.0 2.0 225 233
d 0.724 1 2 cbr 1000 ------- 3 1.0 2.0 225 233
- 0.72464 1 2 cbr 1000 ------- 3 1.0 2.0 28 30
+ 0.726 1 2 cbr 1000 ------- 3 1.0 2.0 226 234
+ 0.726 1 2 cbr 1000 ------- 3 1.0 2.0 227 235
d 0.726 1 2 cbr 1000 ------- 3 1.0 2.0 227 235
r 0.72664 1 2 cbr 1000 ------- 3 1.0 2.0 26 28
+ 0.728 1 2 cbr 1000 ------- 3 1.0 2.0 228 236
d 0.728 1 2 cbr 1000 ------- 3 1.0 2.0 228 236
+ 0.728 1 2 cbr 1000 ------- 3 1.0 2.0 229 237
d 0.728 1 2 cbr 1000 ------- 3 1.0 2.0 229 237
+ 0.73 1 2 cbr 1000 ------- 3 1.0 2.0 230 238
d 0.73 1 2 cbr 1000 ------- 3 1.0 2.0 230 238
+ 0.73 1 2 cbr 1000 ------- 3 1.0 2.0 231 239
d 0.73 1 2 cbr 1000 ------- 3 1.0 2.0 231 239
+ 0.732 1 2 cbr 1000 ------- 3 1.0 2.0 232 240
d 0.732 1 2 cbr 1000 ------- 3 1.0 2.0 232 240
+ 0.732 1 2 cbr 1000 ------- 3 1.0 2.0 233 241
d 0.732 1 2 cbr 1000 ------- 3 1.0 2.0 233 241
- 0.73264 1 2 cbr 1000 ------- 3 1.0 2.0 29 31
+ 0.734 1 2 cbr 1000 ------- 3 1.0 2.0 234 242
+ 0.734 1 2 cbr 1000 ------- 3 1.0 2.0 235 243
d 0.734 1 2 cbr 1000 ------- 3 1.0 2.0 235 243
r 0.73464 1 2 cbr 1000 ------- 3 1.0 2.0 27 29
+ 0.736 1 2 cbr 1000 ------- 3 1.0 2.0 236 244
d 0.736 1 2 cbr 1000 ------- 3 1.0 2.0 236 244
+ 0.736 1 2 cbr 1000 ------- 3 1.0 2.0 237 245
d 0.736 1 2 cbr 1000 ------- 3 1.0 2.0 237 245
+ 0.738 1 2 cbr 1000 ------- 3 1.0 2.0 238 246
d 0.738 1 2 cbr 1000 ------- 3 1.0 2.0 238 246
+ 0.738 1 2 cbr 1000 ------- 3 1.0 2.0 239 247
d 0.738 1 2 cbr 1000 ------- 3 1.0 2.0 239 247
+ 0.74 1 2 cbr 1000 ------- 3 1.0 2.0 240 248
d 0.74 1 2 cbr 1000 ------- 3 1.0 2.0 240 248
+ 0.74 1 2 cbr 1000 ------- 3 1.0 2.0 241 249
d 0.74 1 2 cbr 1000 ------- 3 1.0 2.0 241 249
- 0.74064 1 2 cbr 1000 ------- 3 1.0 2.0 30 32
+ 0.742 1 2 cbr 1000 ------- 3 1.0 2.0 242 250
+ 0.742 1 2 cbr 1000 ------- 3 1.0 2.0 243 251
d 0.742 1 2 cbr 1000 ------- 3 1.0 2.0 243 251
r 0.74264 1 2 cbr 1000 ------- 3 1.0 2.0 28 30
+ 0.744 1 2 cbr 1000 ------- 3 1.0 2.0 244 252
d 0.744 1 2 cbr 1000 ------- 3 1.0 2.0 244 252
+ 0.744 1 2 cbr 1000 ------- 3 1.0 2.0 245 253
d 0.744 1 2 cbr 1000 ------- 3 1.0 2.0 245 253
+ 0.746 1 2 cbr 1000 ------- 3 1.0 2.0 246 254
d 0.746 1 2 cbr 1000 ------- 3 1.0 2.0 246 254
+ 0.746 1 2 cbr 1000 ------- 3 1.0 2.0 247 255
d 0.746 1 2 cbr 1000 ------- 3 1.0 2.0 247 255
+ 0.748 1 2 cbr 1000 ------- 3 1.0 2.0 248 256
d 0.748 1 2 cbr 1000 ------- 3 1.0 2.0 248 256
+ 0.748 1 2 cbr 1000 ------- 3 1.0 2.0 249 257
d 0.748 1 2 cbr 1000 ------- 3 1.0 2.0 249 257
- 0.74864 1 2 cbr 1000 ------- 3 1.0 2.0 31 33
+ 0.75 1 2 cbr 1000 ------- 3 1.0 2.0 250 258
+ 0.75 1 2 cbr 1000 ------- 3 1.0 2.0 251 259
d 0.75 1 2 cbr 1000 ------- 3 1.0 2.0 251 259
r 0.75064 1 2 cbr 1000 ------- 3 1.0 2.0 29 31
+ 0.752 1 2 cbr 1000 ------- 3 1.0 2.0 252 260
d 0.752 1 2 cbr 1000 ------- 3 1.0 2.0 252 260
+ 0.752 1 2 cbr 1000 ------- 3 1.0 2.0 253 261
d 0.752 1 2 cbr 1000 ------- 3 1.0 2.0 253 261
+ 0.754 1 2 cbr 1000 ------- 3 1.0 2.0 254 262
d 0.754 1 2 cbr 1000 ------- 3 1.0 2.0 254 262
+ 0.754 1 2 cbr 1000 ------- 3 1.0 2.0 255 263
d 0.754 1 2 cbr 1000 ------- 3 1.0 2.0 255 263
+ 0.756 1 2 cbr 1000 ------- 3 1.0 2.0 256 264
d 0.756 1 2 cbr 1000 ------- 3 1.0 2.0 256 264
+ 0.756 1 2 cbr 1000 ------- 3 1.0 2.0 257 265
d 0.756 1 2 cbr 1000 ------- 3 1.0 2.0 257 265
- 0.75664 1 2 cbr 1000 ------- 3 1.0 2.0 32 34
+ 0.758 1 2 cbr 1000 ------- 3 1.0 2.0 258 266
+ 0.758 1 2 cbr 1000 ------- 3 1.0 2.0 259 267
d 0.758 1 2 cbr 1000 ------- 3 1.0 2.0 259 267
r 0.75864 1 2 cbr 1000 ------- 3 1.0 2.0 30 32
+ 0.76 1 2 cbr 1000 ------- 3 1.0 2.0 260 268
d 0.76 1 2 cbr 1000 ------- 3 1.0 2.0 260 268
+ 0.76 1 2 cbr 1000 ------- 3 1.0 2.0 261 269
d 0.76 1 2 cbr 1000 ------- 3 1.0 2.0 261 269
+ 0.762 1 2 cbr 1000 ------- 3 1.0 2.0 262 270
d 0.762 1 2 cbr 1000 ------- 3 1.0 2.0 262 270
+ 0.762 1 2 cbr 1000 ------- 3 1.0 2.0 263 271
d 0.762 1 2 cbr 1000 ------- 3 1.0 2.0 263 271
+ 0.764 1 2 cbr 1000 ------- 3 1.0 2.0 264 272
d 0.764 1 2 cbr 1000 ------- 3 1.0 2.0 264 272
+ 0.764 1 2 cbr 1000 ------- 3 1.0 2.0 265 273
d 0.764 1 2 cbr 1000 ------- 3 1.0 2.0 265 273
- 0.76464 1 2 cbr 1000 ------- 3 1.0 2.0 33 35
+ 0.766 1 2 cbr 1000 ------- 3 1.0 2.0 266 274
+ 0.766 1 2 cbr 1000 ------- 3 1.0 2.0 267 275
d 0.766 1 2 cbr 1000 ------- 3 1.0 2.0 267 275
r 0.76664 1 2 cbr 1000 ------- 3 1.0 2.0 31 33
+ 0.768 1 2 cbr 1000 ------- 3 1.0 2.0 268 276
d 0.768 1 2 cbr 1000 ------- 3 1.0 2.0 268 276
+ 0.768 1 2 cbr 1000 ------- 3 1.0 2.0 269 277
d 0.768 1 2 cbr 1000 ------- 3 1.0 2.0 269 277
+ 0.77 1 2 cbr 1000 ------- 3 1.0 2.0 270 278
d 0.77 1 2 cbr 1000 ------- 3 1.0 2.0 270 278
+ 0.77 1 2 cbr 1000 ------- 3 1.0 2.0 271 279
d 0.77 1 2 cbr 1000 ------- 3 1.0 2.0 271 279
+ 0.772 1 2 cbr 1000 ------- 3 1.0 2.0 272 280
d 0.772 1 2 cbr 1000 ------- 3 1.0 2.0 272 280
+ 0.772 1 2 cbr 1000 ------- 3 1.0 2.0 273 281
d 0.772 1 2 cbr 1000 ------- 3 1.0 2.0 273 281
- 0.77264 1 2 cbr 1000 ------- 3 1.0 2.0 34 36
+ 0.774 1 2 cbr 1000 ------- 3 1.0 2.0 274 282
+ 0.774 1 2 cbr 1000 ------- 3 1.0 2.0 275 283
d 0.774 1 2 cbr 1000 ------- 3 1.0 2.0 275 283
r 0.77464 1 2 cbr 1000 ------- 3 1.0 2.0 32 34
+ 0.776 1 2 cbr 1000 ------- 3 1.0 2.0 276 284
d 0.776 1 2 cbr 1000 ------- 3 1.0 2.0 276 284
+ 0.776 1 2 cbr 1000 ------- 3 1.0 2.0 277 285
d 0.776 1 2 cbr 1000 ------- 3 1.0 2.0 277 285
+ 0.778 1 2 cbr 1000 ------- 3 1.0 2.0 278 286
d 0.778 1 2 cbr 1000 ------- 3 1.0 2.0 278 286
+ 0.778 1 2 cbr 1000 ------- 3 1.0 2.0 279 287
d 0.778 1 2 cbr 1000 ------- 3 1.0 2.0 279 287
+ 0.78 1 2 cbr 1000 ------- 3 1.0 2.0 280 288
d 0.78 1 2 cbr 1000 ------- 3 1.0 2.0 280 288
+ 0.78 1 2 cbr 1000 ------- 3 1.0 2.0 281 289
d 0.78 1 2 cbr 1000 ------- 3 1.0 2.0 281 289
- 0.78064 1 2 cbr 1000 ------- 3 1.0 2.0 35 37
+ 0.782 1 2 cbr 1000 ------- 3 1.0 2.0 282 290
+ 0.782 1 2 cbr 1000 ------- 3 1.0 2.0 283 291
d 0.782 1 2 cbr 1000 ------- 3 1.0 2.0 283 291
r 0.78264 1 2 cbr 1000 ------- 3 1.0 2.0 33 35
+ 0.784 1 2 cbr 1000 ------- 3 1.0 2.0 284 292
d 0.784 1 2 cbr 1000 ------- 3 1.0 2.0 284 292
+ 0.784 1 2 cbr 1000 ------- 3 1.0 2.0 285 293
d 0.784 1 2 cbr 1000 ------- 3 1.0 2.0 285 293
+ 0.786 1 2 cbr 1000 ------- 3 1.0 2.0 286 294
d 0.786 1 2 cbr 1000 ------- 3 1.0 2.0 286 294
+ 0.786 1 2 cbr 1000 ------- 3 1.0 2.0 287 295
d 0.786 1 2 cbr 1000 ------- 3 1.0 2.0 287 295
+ 0.788 1 2 cbr 1000 ------- 3 1.0 2.0 288 296
d 0.788 1 2 cbr 1000 ------- 3 1.0 2.0 288 296
+ 0.788 1 2 cbr 1000 ------- 3 1.0 2.0 289 297
d 0.788 1 2 cbr 1000 ------- 3 1.0 2.0 289 297
- 0.78864 1 2 cbr 1000 ------- 3 1.0 2.0 36 38
+ 0.79 1 2 cbr 1000 ------- 3 1.0 2.0 290 298
+ 0.79 1 2 cbr 1000 ------- 3 1.0 2.0 291 299
d 0.79 1 2 cbr 1000 ------- 3 1.0 2.0 291 299
r 0.79064 1 2 cbr 1000 ------- 3 1.0 2.0 34 36
+ 0.792 1 2 cbr 1000 ------- 3 1.0 2.0 292 300
d 0.792 1 2 cbr 1000 ------- 3 1.0 2.0 292 300
+ 0.792 1 2 cbr 1000 ------- 3 1.0 2.0 293 301
d 0.792 1 2 cbr 1000 ------- 3 1.0 2.0 293 301
+ 0.794 1 2 cbr 1000 ------- 3 1.0 2.0 294 302
d 0.794 1 2 cbr 1000 ------- 3 1.0 2.0 294 302
+ 0.794 1 2 cbr 1000 ------- 3 1.0 2.0 295 303
d 0.794 1 2 cbr 1000 ------- 3 1.0 2.0 295 303
+ 0.796 1 2 cbr 1000 ------- 3 1.0 2.0 296 304
d 0.796 1 2 cbr 1000 ------- 3 1.0 2.0 296 304
+ 0.796 1 2 cbr 1000 ------- 3 1.0 2.0 297 305
d 0.796 1 2 cbr 1000 ------- 3 1.0 2.0 297 305
- 0.79664 1 2 cbr 1000 ------- 3 1.0 2.0 37 39
+ 0.798 1 2 cbr 1000 ------- 3 1.0 2.0 298 306
+ 0.798 1 2 cbr 1000 ------- 3 1.0 2.0 299 307
d 0.798 1 2 cbr 1000 ------- 3 1.0 2.0 299 307
r 0.79864 1 2 cbr 1000 ------- 3 1.0 2.0 35 37
+ 0.8 1 2 cbr 1000 ------- 3 1.0 2.0 300 308
d 0.8 1 2 cbr 1000 ------- 3 1.0 2.0 300 308
+ 0.8 1 2 cbr 1000 ------- 3 1.0 2.0 301 309
d 0.8 1 2 cbr 1000 ------- 3 1.0 2.0 301 309
+ 0.802 1 2 cbr 1000 ------- 3 1.0 2.0 302 310
d 0.802 1 2 cbr 1000 ------- 3 1.0 2.0 302 310
+ 0.802 1 2 cbr 1000 ------- 3 1.0 2.0 303 311