+ 0.5 1 2 cbr 210 ------- 3 1.0 2.0 0 0
- 0.5 1 2 cbr 210 ------- 3 1.0 2.0 0 0
+ 0.5 0 1 tcp 40 ------- 1 0.0 3.0 0 1
- 0.5 0 1 tcp 40 ------- 1 0.0 3.0 0 1
+ 0.500187 1 2 cbr 210 ------- 3 1.0 2.0 1 2
- 0.500187 1 2 cbr 210 ------- 3 1.0 2.0 1 2
+ 0.500373 1 2 cbr 210 ------- 3 1.0 2.0 2 3
- 0.500373 1 2 cbr 210 ------- 3 1.0 2.0 2 3
+ 0.50056 1 2 cbr 210 ------- 3 1.0 2.0 3 4
- 0.50056 1 2 cbr 210 ------- 3 1.0 2.0 3 4
+ 0.500747 1 2 cbr 210 ------- 3 1.0 2.0 4 5
- 0.500747 1 2 cbr 210 ------- 3 1.0 2.0 4 5
+ 0.500933 1 2 cbr 210 ------- 3 1.0 2.0 5 6
- 0.500933 1 2 cbr 210 ------- 3 1.0 2.0 5 6
+ 0.50112 1 2 cbr 210 ------- 3 1.0 2.0 6 7
- 0.50112 1 2 cbr 210 ------- 3 1.0 2.0 6 7
+ 0.501307 1 2 cbr 210 ------- 3 1.0 2.0 7 8
- 0.501307 1 2 cbr 210 ------- 3 1.0 2.0 7 8
+ 0.501493 1 2 cbr 210 ------- 3 1.0 2.0 8 9
- 0.501493 1 2 cbr 210 ------- 3 1.0 2.0 8 9
+ 0.50168 1 2 cbr 210 ------- 3 1.0 2.0 9 10
- 0.50168 1 2 cbr 210 ------- 3 1.0 2.0 9 10
+ 0.501867 1 2 cbr 210 ------- 3 1.0 2.0 10 11
- 0.501867 1 2 cbr 210 ------- 3 1.0 2.0 10 11
+ 0.502053 1 2 cbr 210 ------- 3 1.0 2.0 11 12
- 0.502053 1 2 cbr 210 ------- 3 1.0 2.0 11 12
+ 0.50224 1 2 cbr 210 ------- 3 1.0 2.0 12 13
- 0.50224 1 2 cbr 210 ------- 3 1.0 2.0 12 13
+ 0.502427 1 2 cbr 210 ------- 3 1.0 2.0 13 14
- 0.502427 1 2 cbr 210 ------- 3 1.0 2.0 13 14
+ 0.502613 1 2 cbr 210 ------- 3 1.0 2.0 14 15
- 0.502613 1 2 cbr 210 ------- 3 1.0 2.0 14 15
+ 0.5028 1 2 cbr 210 ------- 3 1.0 2.0 15 16
- 0.5028 1 2 cbr 210 ------- 3 1.0 2.0 15 16
+ 0.502987 1 2 cbr 210 ------- 3 1.0 2.0 16 17
- 0.502987 1 2 cbr 210 ------- 3 1.0 2.0 16 17
+ 0.503173 1 2 cbr 210 ------- 3 1.0 2.0 17 18
- 0.503173 1 2 cbr 210 ------- 3 1.0 2.0 17 18
+ 0.50336 1 2 cbr 210 ------- 3 1.0 2.0 18 19
- 0.50336 1 2 cbr 210 ------- 3 1.0 2.0 18 19
+ 0.503547 1 2 cbr 210 ------- 3 1.0 2.0 19 20
- 0.503547 1 2 cbr 210 ------- 3 1.0 2.0 19 20
+ 0.503733 1 2 cbr 210 ------- 3 1.0 2.0 20 21
- 0.503733 1 2 cbr 210 ------- 3 1.0 2.0 20 21
+ 0.50392 1 2 cbr 210 ------- 3 1.0 2.0 21 22
- 0.50392 1 2 cbr 210 ------- 3 1.0 2.0 21 22
+ 0.504107 1 2 cbr 210 ------- 3 1.0 2.0 22 23
- 0.504107 1 2 cbr 210 ------- 3 1.0 2.0 22 23
+ 0.504293 1 2 cbr 210 ------- 3 1.0 2.0 23 24
- 0.504293 1 2 cbr 210 ------- 3 1.0 2.0 23 24
+ 0.50448 1 2 cbr 210 ------- 3 1.0 2.0 24 25
- 0.50448 1 2 cbr 210 ------- 3 1.0 2.0 24 25
+ 0.504667 1 2 cbr 210 ------- 3 1.0 2.0 25 26
- 0.504667 1 2 cbr 210 ------- 3 1.0 2.0 25 26
+ 0.504853 1 2 cbr 210 ------- 3 1.0 2.0 26 27
- 0.504853 1 2 cbr 210 ------- 3 1.0 2.0 26 27
+ 0.50504 1 2 cbr 210 ------- 3 1.0 2.0 27 28
- 0.50504 1 2 cbr 210 ------- 3 1.0 2.0 27 28
+ 0.505227 1 2 cbr 210 ------- 3 1.0 2.0 28 29
- 0.505227 1 2 cbr 210 ------- 3 1.0 2.0 28 29
+ 0.505413 1 2 cbr 210 ------- 3 1.0 2.0 29 30
- 0.505413 1 2 cbr 210 ------- 3 1.0 2.0 29 30
+ 0.5056 1 2 cbr 210 ------- 3 1.0 2.0 30 31
- 0.5056 1 2 cbr 210 ------- 3 1.0 2.0 30 31
+ 0.505787 1 2 cbr 210 ------- 3 1.0 2.0 31 32
- 0.505787 1 2 cbr 210 ------- 3 1.0 2.0 31 32
+ 0.505973 1 2 cbr 210 ------- 3 1.0 2.0 32 33
- 0.505973 1 2 cbr 210 ------- 3 1.0 2.0 32 33
+ 0.50616 1 2 cbr 210 ------- 3 1.0 2.0 33 34
- 0.50616 1 2 cbr 210 ------- 3 1.0 2.0 33 34
+ 0.506347 1 2 cbr 210 ------- 3 1.0 2.0 34 35
- 0.506347 1 2 cbr 210 ------- 3 1.0 2.0 34 35
+ 0.506533 1 2 cbr 210 ------- 3 1.0 2.0 35 36
- 0.506533 1 2 cbr 210 ------- 3 1.0 2.0 35 36
+ 0.50672 1 2 cbr 210 ------- 3 1.0 2.0 36 37
- 0.50672 1 2 cbr 210 ------- 3 1.0 2.0 36 37
+ 0.506907 1 2 cbr 210 ------- 3 1.0 2.0 37 38
- 0.506907 1 2 cbr 210 ------- 3 1.0 2.0 37 38
+ 0.507093 1 2 cbr 210 ------- 3 1.0 2.0 38 39
- 0.507093 1 2 cbr 210 ------- 3 1.0 2.0 38 39
+ 0.50728 1 2 cbr 210 ------- 3 1.0 2.0 39 40
- 0.50728 1 2 cbr 210 ------- 3 1.0 2.0 39 40
+ 0.507467 1 2 cbr 210 ------- 3 1.0 2.0 40 41
- 0.507467 1 2 cbr 210 ------- 3 1.0 2.0 40 41
+ 0.507653 1 2 cbr 210 ------- 3 1.0 2.0 41 42
- 0.507653 1 2 cbr 210 ------- 3 1.0 2.0 41 42
+ 0.50784 1 2 cbr 210 ------- 3 1.0 2.0 42 43
- 0.50784 1 2 cbr 210 ------- 3 1.0 2.0 42 43
+ 0.508027 1 2 cbr 210 ------- 3 1.0 2.0 43 44
- 0.508027 1 2 cbr 210 ------- 3 1.0 2.0 43 44
+ 0.508213 1 2 cbr 210 ------- 3 1.0 2.0 44 45
- 0.508213 1 2 cbr 210 ------- 3 1.0 2.0 44 45
+ 0.5084 1 2 cbr 210 ------- 3 1.0 2.0 45 46
- 0.5084 1 2 cbr 210 ------- 3 1.0 2.0 45 46
+ 0.508587 1 2 cbr 210 ------- 3 1.0 2.0 46 47
- 0.508587 1 2 cbr 210 ------- 3 1.0 2.0 46 47
+ 0.508773 1 2 cbr 210 ------- 3 1.0 2.0 47 48
- 0.508773 1 2 cbr 210 ------- 3 1.0 2.0 47 48
+ 0.50896 1 2 cbr 210 ------- 3 1.0 2.0 48 49
- 0.50896 1 2 cbr 210 ------- 3 1.0 2.0 48 49
+ 0.509147 1 2 cbr 210 ------- 3 1.0 2.0 49 50
- 0.509147 1 2 cbr 210 ------- 3 1.0 2.0 49 50
+ 0.509333 1 2 cbr 210 ------- 3 1.0 2.0 50 51
- 0.509333 1 2 cbr 210 ------- 3 1.0 2.0 50 51
+ 0.50952 1 2 cbr 210 ------- 3 1.0 2.0 51 52
- 0.50952 1 2 cbr 210 ------- 3 1.0 2.0 51 52
+ 0.509707 1 2 cbr 210 ------- 3 1.0 2.0 52 53
- 0.509707 1 2 cbr 210 ------- 3 1.0 2.0 52 53
+ 0.509893 1 2 cbr 210 ------- 3 1.0 2.0 53 54
- 0.509893 1 2 cbr 210 ------- 3 1.0 2.0 53 54
r 0.510032 0 1 tcp 40 ------- 1 0.0 3.0 0 1
+ 0.510032 1 2 tcp 40 ------- 1 0.0 3.0 0 1
- 0.510061 1 2 tcp 40 ------- 1 0.0 3.0 0 1
+ 0.51008 1 2 cbr 210 ------- 3 1.0 2.0 54 55
- 0.510093 1 2 cbr 210 ------- 3 1.0 2.0 54 55
r 0.510168 1 2 cbr 210 ------- 3 1.0 2.0 0 0
+ 0.510267 1 2 cbr 210 ------- 3 1.0 2.0 55 56
- 0.510267 1 2 cbr 210 ------- 3 1.0 2.0 55 56
r 0.510355 1 2 cbr 210 ------- 3 1.0 2.0 1 2
+ 0.510453 1 2 cbr 210 ------- 3 1.0 2.0 56 57
- 0.510453 1 2 cbr 210 ------- 3 1.0 2.0 56 57
r 0.510541 1 2 cbr 210 ------- 3 1.0 2.0 2 3
+ 0.51064 1 2 cbr 210 ------- 3 1.0 2.0 57 58
- 0.51064 1 2 cbr 210 ------- 3 1.0 2.0 57 58
r 0.510728 1 2 cbr 210 ------- 3 1.0 2.0 3 4
+ 0.510827 1 2 cbr 210 ------- 3 1.0 2.0 58 59
- 0.510827 1 2 cbr 210 ------- 3 1.0 2.0 58 59
r 0.510915 1 2 cbr 210 ------- 3 1.0 2.0 4 5
+ 0.511013 1 2 cbr 210 ------- 3 1.0 2.0 59 60
- 0.511013 1 2 cbr 210 ------- 3 1.0 2.0 59 60
r 0.511101 1 2 cbr 210 ------- 3 1.0 2.0 5 6
+ 0.5112 1 2 cbr 210 ------- 3 1.0 2.0 60 61
- 0.5112 1 2 cbr 210 ------- 3 1.0 2.0 60 61
r 0.511288 1 2 cbr 210 ------- 3 1.0 2.0 6 7
+ 0.511387 1 2 cbr 210 ------- 3 1.0 2.0 61 62
- 0.511387 1 2 cbr 210 ------- 3 1.0 2.0 61 62
r 0.511475 1 2 cbr 210 ------- 3 1.0 2.0 7 8
+ 0.511573 1 2 cbr 210 ------- 3 1.0 2.0 62 63
- 0.511573 1 2 cbr 210 ------- 3 1.0 2.0 62 63
r 0.511661 1 2 cbr 210 ------- 3 1.0 2.0 8 9
+ 0.51176 1 2 cbr 210 ------- 3 1.0 2.0 63 64
- 0.51176 1 2 cbr 210 ------- 3 1.0 2.0 63 64
r 0.511848 1 2 cbr 210 ------- 3 1.0 2.0 9 10
+ 0.511947 1 2 cbr 210 ------- 3 1.0 2.0 64 65
- 0.511947 1 2 cbr 210 ------- 3 1.0 2.0 64 65
r 0.512035 1 2 cbr 210 ------- 3 1.0 2.0 10 11
+ 0.512133 1 2 cbr 210 ------- 3 1.0 2.0 65 66
- 0.512133 1 2 cbr 210 ------- 3 1.0 2.0 65 66
r 0.512221 1 2 cbr 210 ------- 3 1.0 2.0 11 12
+ 0.51232 1 2 cbr 210 ------- 3 1.0 2.0 66 67
- 0.51232 1 2 cbr 210 ------- 3 1.0 2.0 66 67
r 0.512408 1 2 cbr 210 ------- 3 1.0 2.0 12 13
+ 0.512507 1 2 cbr 210 ------- 3 1.0 2.0 67 68
- 0.512507 1 2 cbr 210 ------- 3 1.0 2.0 67 68
r 0.512595 1 2 cbr 210 ------- 3 1.0 2.0 13 14
+ 0.512693 1 2 cbr 210 ------- 3 1.0 2.0 68 69
- 0.512693 1 2 cbr 210 ------- 3 1.0 2.0 68 69
r 0.512781 1 2 cbr 210 ------- 3 1.0 2.0 14 15
+ 0.51288 1 2 cbr 210 ------- 3 1.0 2.0 69 70
- 0.51288 1 2 cbr 210 ------- 3 1.0 2.0 69 70
r 0.512968 1 2 cbr 210 ------- 3 1.0 2.0 15 16
+ 0.513067 1 2 cbr 210 ------- 3 1.0 2.0 70 71
- 0.513067 1 2 cbr 210 ------- 3 1.0 2.0 70 71
r 0.513155 1 2 cbr 210 ------- 3 1.0 2.0 16 17
+ 0.513253 1 2 cbr 210 ------- 3 1.0 2.0 71 72
- 0.513253 1 2 cbr 210 ------- 3 1.0 2.0 71 72
r 0.513341 1 2 cbr 210 ------- 3 1.0 2.0 17 18
+ 0.51344 1 2 cbr 210 ------- 3 1.0 2.0 72 73
- 0.51344 1 2 cbr 210 ------- 3 1.0 2.0 72 73
r 0.513528 1 2 cbr 210 ------- 3 1.0 2.0 18 19
+ 0.513627 1 2 cbr 210 ------- 3 1.0 2.0 73 74
- 0.513627 1 2 cbr 210 ------- 3 1.0 2.0 73 74
r 0.513715 1 2 cbr 210 ------- 3 1.0 2.0 19 20
+ 0.513813 1 2 cbr 210 ------- 3 1.0 2.0 74 75
- 0.513813 1 2 cbr 210 ------- 3 1.0 2.0 74 75
r 0.513901 1 2 cbr 210 ------- 3 1.0 2.0 20 21
+ 0.514 1 2 cbr 210 ------- 3 1.0 2.0 75 76
- 0.514 1 2 cbr 210 ------- 3 1.0 2.0 75 76
r 0.514088 1 2 cbr 210 ------- 3 1.0 2.0 21 22
+ 0.514187 1 2 cbr 210 ------- 3 1.0 2.0 76 77
- 0.514187 1 2 cbr 210 ------- 3 1.0 2.0 76 77
r 0.514275 1 2 cbr 210 ------- 3 1.0 2.0 22 23
+ 0.514373 1 2 cbr 210 ------- 3 1.0 2.0 77 78
- 0.514373 1 2 cbr 210 ------- 3 1.0 2.0 77 78
r 0.514461 1 2 cbr 210 ------- 3 1.0 2.0 23 24
+ 0.51456 1 2 cbr 210 ------- 3 1.0 2.0 78 79
- 0.51456 1 2 cbr 210 ------- 3 1.0 2.0 78 79
r 0.514648 1 2 cbr 210 ------- 3 1.0 2.0 24 25
+ 0.514747 1 2 cbr 210 ------- 3 1.0 2.0 79 80
- 0.514747 1 2 cbr 210 ------- 3 1.0 2.0 79 80
r 0.514835 1 2 cbr 210 ------- 3 1.0 2.0 25 26
+ 0.514933 1 2 cbr 210 ------- 3 1.0 2.0 80 81
- 0.514933 1 2 cbr 210 ------- 3 1.0 2.0 80 81
r 0.515021 1 2 cbr 210 ------- 3 1.0 2.0 26 27
+ 0.51512 1 2 cbr 210 ------- 3 1.0 2.0 81 82
- 0.51512 1 2 cbr 210 ------- 3 1.0 2.0 81 82
r 0.515208 1 2 cbr 210 ------- 3 1.0 2.0 27 28
+ 0.515307 1 2 cbr 210 ------- 3 1.0 2.0 82 83
- 0.515307 1 2 cbr 210 ------- 3 1.0 2.0 82 83
r 0.515395 1 2 cbr 210 ------- 3 1.0 2.0 28 29
+ 0.515493 1 2 cbr 210 ------- 3 1.0 2.0 83 84
- 0.515493 1 2 cbr 210 ------- 3 1.0 2.0 83 84
r 0.515581 1 2 cbr 210 ------- 3 1.0 2.0 29 30
+ 0.51568 1 2 cbr 210 ------- 3 1.0 2.0 84 85
- 0.51568 1 2 cbr 210 ------- 3 1.0 2.0 84 85
r 0.515768 1 2 cbr 210 ------- 3 1.0 2.0 30 31
+ 0.515867 1 2 cbr 210 ------- 3 1.0 2.0 85 86
- 0.515867 1 2 cbr 210 ------- 3 1.0 2.0 85 86
r 0.515955 1 2 cbr 210 ------- 3 1.0 2.0 31 32
+ 0.516053 1 2 cbr 210 ------- 3 1.0 2.0 86 87
- 0.516053 1 2 cbr 210 ------- 3 1.0 2.0 86 87
r 0.516141 1 2 cbr 210 ------- 3 1.0 2.0 32 33
+ 0.51624 1 2 cbr 210 ------- 3 1.0 2.0 87 88
- 0.51624 1 2 cbr 210 ------- 3 1.0 2.0 87 88
r 0.516328 1 2 cbr 210 ------- 3 1.0 2.0 33 34
+ 0.516427 1 2 cbr 210 ------- 3 1.0 2.0 88 89
- 0.516427 1 2 cbr 210 ------- 3 1.0 2.0 88 89
r 0.516515 1 2 cbr 210 ------- 3 1.0 2.0 34 35
+ 0.516613 1 2 cbr 210 ------- 3 1.0 2.0 89 90
- 0.516613 1 2 cbr 210 ------- 3 1.0 2.0 89 90
r 0.516701 1 2 cbr 210 ------- 3 1.0 2.0 35 36
+ 0.5168 1 2 cbr 210 ------- 3 1.0 2.0 90 91
- 0.5168 1 2 cbr 210 ------- 3 1.0 2.0 90 91
r 0.516888 1 2 cbr 210 ------- 3 1.0 2.0 36 37
+ 0.516987 1 2 cbr 210 ------- 3 1.0 2.0 91 92
- 0.516987 1 2 cbr 210 ------- 3 1.0 2.0 91 92
r 0.517075 1 2 cbr 210 ------- 3 1.0 2.0 37 38
+ 0.517173 1 2 cbr 210 ------- 3 1.0 2.0 92 93
- 0.517173 1 2 cbr 210 ------- 3 1.0 2.0 92 93
r 0.517261 1 2 cbr 210 ------- 3 1.0 2.0 38 39
+ 0.51736 1 2 cbr 210 ------- 3 1.0 2.0 93 94
- 0.51736 1 2 cbr 210 ------- 3 1.0 2.0 93 94
r 0.517448 1 2 cbr 210 ------- 3 1.0 2.0 39 40
+ 0.517547 1 2 cbr 210 ------- 3 1.0 2.0 94 95
- 0.517547 1 2 cbr 210 ------- 3 1.0 2.0 94 95
r 0.517635 1 2 cbr 210 ------- 3 1.0 2.0 40 41
+ 0.517733 1 2 cbr 210 ------- 3 1.0 2.0 95 96
- 0.517733 1 2 cbr 210 ------- 3 1.0 2.0 95 96
r 0.517821 1 2 cbr 210 ------- 3 1.0 2.0 41 42
+ 0.51792 1 2 cbr 210 ------- 3 1.0 2.0 96 97
- 0.51792 1 2 cbr 210 ------- 3 1.0 2.0 96 97
r 0.518008 1 2 cbr 210 ------- 3 1.0 2.0 42 43
+ 0.518107 1 2 cbr 210 ------- 3 1.0 2.0 97 98
- 0.518107 1 2 cbr 210 ------- 3 1.0 2.0 97 98
r 0.518195 1 2 cbr 210 ------- 3 1.0 2.0 43 44
+ 0.518293 1 2 cbr 210 ------- 3 1.0 2.0 98 99
- 0.518293 1 2 cbr 210 ------- 3 1.0 2.0 98 99
r 0.518381 1 2 cbr 210 ------- 3 1.0 2.0 44 45
+ 0.51848 1 2 cbr 210 ------- 3 1.0 2.0 99 100
- 0.51848 1 2 cbr 210 ------- 3 1.0 2.0 99 100
r 0.518568 1 2 cbr 210 ------- 3 1.0 2.0 45 46
+ 0.518667 1 2 cbr 210 ------- 3 1.0 2.0 100 101
- 0.518667 1 2 cbr 210 ------- 3 1.0 2.0 100 101
r 0.518755 1 2 cbr 210 ------- 3 1.0 2.0 46 47
+ 0.518853 1 2 cbr 210 ------- 3 1.0 2.0 101 102
- 0.518853 1 2 cbr 210 ------- 3 1.0 2.0 101 102
r 0.518941 1 2 cbr 210 ------- 3 1.0 2.0 47 48
+ 0.51904 1 2 cbr 210 ------- 3 1.0 2.0 102 103
- 0.51904 1 2 cbr 210 ------- 3 1.0 2.0 102 103
r 0.519128 1 2 cbr 210 ------- 3 1.0 2.0 48 49
+ 0.519227 1 2 cbr 210 ------- 3 1.0 2.0 103 104
- 0.519227 1 2 cbr 210 ------- 3 1.0 2.0 103 104
r 0.519315 1 2 cbr 210 ------- 3 1.0 2.0 49 50
+ 0.519413 1 2 cbr 210 ------- 3 1.0 2.0 104 105
- 0.519413 1 2 cbr 210 ------- 3 1.0 2.0 104 105
r 0.519501 1 2 cbr 210 ------- 3 1.0 2.0 50 51
+ 0.5196 1 2 cbr 210 ------- 3 1.0 2.0 105 106
- 0.5196 1 2 cbr 210 ------- 3 1.0 2.0 105 106
r 0.519688 1 2 cbr 210 ------- 3 1.0 2.0 51 52
+ 0.519787 1 2 cbr 210 ------- 3 1.0 2.0 106 107
- 0.519787 1 2 cbr 210 ------- 3 1.0 2.0 106 107
r 0.519875 1 2 cbr 210 ------- 3 1.0 2.0 52 53
+ 0.519973 1 2 cbr 210 ------- 3 1.0 2.0 107 108
- 0.519973 1 2 cbr 210 ------- 3 1.0 2.0 107 108
r 0.520061 1 2 cbr 210 ------- 3 1.0 2.0 53 54
r 0.520093 1 2 tcp 40 ------- 1 0.0 3.0 0 1
+ 0.520093 2 3 tcp 40 ------- 1 0.0 3.0 0 1
- 0.520093 2 3 tcp 40 ------- 1 0.0 3.0 0 1
+ 0.52016 1 2 cbr 210 ------- 3 1.0 2.0 108 109
- 0.52016 1 2 cbr 210 ------- 3 1.0 2.0 108 109
r 0.520261 1 2 cbr 210 ------- 3 1.0 2.0 54 55
+ 0.520347 1 2 cbr 210 ------- 3 1.0 2.0 109 110
- 0.520347 1 2 cbr 210 ------- 3 1.0 2.0 109 110
r 0.520435 1 2 cbr 210 ------- 3 1.0 2.0 55 56
+ 0.520533 1 2 cbr 210 ------- 3 1.0 2.0 110 111
- 0.520533 1 2 cbr 210 ------- 3 1.0 2.0 110 111
r 0.520621 1 2 cbr 210 ------- 3 1.0 2.0 56 57
+ 0.52072 1 2 cbr 210 ------- 3 1.0 2.0 111 112
- 0.52072 1 2 cbr 210 ------- 3 1.0 2.0 111 112
r 0.520808 1 2 cbr 210 ------- 3 1.0 2.0 57 58
+ 0.520907 1 2 cbr 210 ------- 3 1.0 2.0 112 113
- 0.520907 1 2 cbr 210 ------- 3 1.0 2.0 112 113
r 0.520995 1 2 cbr 210 ------- 3 1.0 2.0 58 59
+ 0.521093 1 2 cbr 210 ------- 3 1.0 2.0 113 114
- 0.521093 1 2 cbr 210 ------- 3 1.0 2.0 113 114
r 0.521181 1 2 cbr 210 ------- 3 1.0 2.0 59 60
+ 0.52128 1 2 cbr 210 ------- 3 1.0 2.0 114 115
- 0.52128 1 2 cbr 210 ------- 3 1.0 2.0 114 115
r 0.521368 1 2 cbr 210 ------- 3 1.0 2.0 60 61
+ 0.521467 1 2 cbr 210 ------- 3 1.0 2.0 115 116
- 0.521467 1 2 cbr 210 ------- 3 1.0 2.0 115 116
r 0.521555 1 2 cbr 210 ------- 3 1.0 2.0 61 62
+ 0.521653 1 2 cbr 210 ------- 3 1.0 2.0 116 117
- 0.521653 1 2 cbr 210 ------- 3 1.0 2.0 116 117
r 0.521741 1 2 cbr 210 ------- 3 1.0 2.0 62 63
+ 0.52184 1 2 cbr 210 ------- 3 1.0 2.0 117 118
- 0.52184 1 2 cbr 210 ------- 3 1.0 2.0 117 118
r 0.521928 1 2 cbr 210 ------- 3 1.0 2.0 63 64
+ 0.522027 1 2 cbr 210 ------- 3 1.0 2.0 118 119
- 0.522027 1 2 cbr 210 ------- 3 1.0 2.0 118 119
r 0.522115 1 2 cbr 210 ------- 3 1.0 2.0 64 65
+ 0.522213 1 2 cbr 210 ------- 3 1.0 2.0 119 120
- 0.522213 1 2 cbr 210 ------- 3 1.0 2.0 119 120
r 0.522301 1 2 cbr 210 ------- 3 1.0 2.0 65 66
+ 0.5224 1 2 cbr 210 ------- 3 1.0 2.0 120 121
- 0.5224 1 2 cbr 210 ------- 3 1.0 2.0 120 121
r 0.522488 1 2 cbr 210 ------- 3 1.0 2.0 66 67
+ 0.522587 1 2 cbr 210 ------- 3 1.0 2.0 121 122
- 0.522587 1 2 cbr 210 ------- 3 1.0 2.0 121 122
r 0.522675 1 2 cbr 210 ------- 3 1.0 2.0 67 68
+ 0.522773 1 2 cbr 210 ------- 3 1.0 2.0 122 123
- 0.522773 1 2 cbr 210 ------- 3 1.0 2.0 122 123
r 0.522861 1 2 cbr 210 ------- 3 1.0 2.0 68 69
+ 0.52296 1 2 cbr 210 ------- 3 1.0 2.0 123 124
- 0.52296 1 2 cbr 210 ------- 3 1.0 2.0 123 124
r 0.523048 1 2 cbr 210 ------- 3 1.0 2.0 69 70
+ 0.523147 1 2 cbr 210 ------- 3 1.0 2.0 124 125
- 0.523147 1 2 cbr 210 ------- 3 1.0 2.0 124 125
r 0.523235 1 2 cbr 210 ------- 3 1.0 2.0 70 71
+ 0.523333 1 2 cbr 210 ------- 3 1.0 2.0 125 126
- 0.523333 1 2 cbr 210 ------- 3 1.0 2.0 125 126
r 0.523421 1 2 cbr 210 ------- 3 1.0 2.0 71 72
+ 0.52352 1 2 cbr 210 ------- 3 1.0 2.0 126 127
- 0.52352 1 2 cbr 210 ------- 3 1.0 2.0 126 127
r 0.523608 1 2 cbr 210 ------- 3 1.0 2.0 72 73
+ 0.523707 1 2 cbr 210 ------- 3 1.0 2.0 127 128
- 0.523707 1 2 cbr 210 ------- 3 1.0 2.0 127 128
r 0.523795 1 2 cbr 210 ------- 3 1.0 2.0 73 74
+ 0.523893 1 2 cbr 210 ------- 3 1.0 2.0 128 129
- 0.523893 1 2 cbr 210 ------- 3 1.0 2.0 128 129
r 0.523981 1 2 cbr 210 ------- 3 1.0 2.0 74 75
+ 0.52408 1 2 cbr 210 ------- 3 1.0 2.0 129 130
- 0.52408 1 2 cbr 210 ------- 3 1.0 2.0 129 130
r 0.524168 1 2 cbr 210 ------- 3 1.0 2.0 75 76
+ 0.524267 1 2 cbr 210 ------- 3 1.0 2.0 130 131
- 0.524267 1 2 cbr 210 ------- 3 1.0 2.0 130 131
r 0.524355 1 2 cbr 210 ------- 3 1.0 2.0 76 77
+ 0.524453 1 2 cbr 210 ------- 3 1.0 2.0 131 132
- 0.524453 1 2 cbr 210 ------- 3 1.0 2.0 131 132
r 0.524541 1 2 cbr 210 ------- 3 1.0 2.0 77 78
+ 0.52464 1 2 cbr 210 ------- 3 1.0 2.0 132 133
- 0.52464 1 2 cbr 210 ------- 3 1.0 2.0 132 133
r 0.524728 1 2 cbr 210 ------- 3 1.0 2.0 78 79
+ 0.524827 1 2 cbr 210 ------- 3 1.0 2.0 133 134
- 0.524827 1 2 cbr 210 ------- 3 1.0 2.0 133 134
r 0.524915 1 2 cbr 210 ------- 3 1.0 2.0 79 80
+ 0.525013 1 2 cbr 210 ------- 3 1.0 2.0 134 135
- 0.525013 1 2 cbr 210 ------- 3 1.0 2.0 134 135
r 0.525101 1 2 cbr 210 ------- 3 1.0 2.0 80 81
+ 0.5252 1 2 cbr 210 ------- 3 1.0 2.0 135 136
- 0.5252 1 2 cbr 210 ------- 3 1.0 2.0 135 136
r 0.525288 1 2 cbr 210 ------- 3 1.0 2.0 81 82
+ 0.525387 1 2 cbr 210 ------- 3 1.0 2.0 136 137
- 0.525387 1 2 cbr 210 ------- 3 1.0 2.0 136 137
r 0.525475 1 2 cbr 210 ------- 3 1.0 2.0 82 83
+ 0.525573 1 2 cbr 210 ------- 3 1.0 2.0 137 138
- 0.525573 1 2 cbr 210 ------- 3 1.0 2.0 137 138
r 0.525661 1 2 cbr 210 ------- 3 1.0 2.0 83 84
+ 0.52576 1 2 cbr 210 ------- 3 1.0 2.0 138 139
- 0.52576 1 2 cbr 210 ------- 3 1.0 2.0 138 139
r 0.525848 1 2 cbr 210 ------- 3 1.0 2.0 84 85
+ 0.525947 1 2 cbr 210 ------- 3 1.0 2.0 139 140
- 0.525947 1 2 cbr 210 ------- 3 1.0 2.0 139 140
r 0.526035 1 2 cbr 210 ------- 3 1.0 2.0 85 86
+ 0.526133 1 2 cbr 210 ------- 3 1.0 2.0 140 141
- 0.526133 1 2 cbr 210 ------- 3 1.0 2.0 140 141
r 0.526221 1 2 cbr 210 ------- 3 1.0 2.0 86 87
+ 0.52632 1 2 cbr 210 ------- 3 1.0 2.0 141 142
- 0.52632 1 2 cbr 210 ------- 3 1.0 2.0 141 142
r 0.526408 1 2 cbr 210 ------- 3 1.0 2.0 87 88
+ 0.526507 1 2 cbr 210 ------- 3 1.0 2.0 142 143
- 0.526507 1 2 cbr 210 ------- 3 1.0 2.0 142 143
r 0.526595 1 2 cbr 210 ------- 3 1.0 2.0 88 89
+ 0.526693 1 2 cbr 210 ------- 3 1.0 2.0 143 144
- 0.526693 1 2 cbr 210 ------- 3 1.0 2.0 143 144
r 0.526781 1 2 cbr 210 ------- 3 1.0 2.0 89 90
+ 0.52688 1 2 cbr 210 ------- 3 1.0 2.0 144 145
- 0.52688 1 2 cbr 210 ------- 3 1.0 2.0 144 145
r 0.526968 1 2 cbr 210 ------- 3 1.0 2.0 90 91
+ 0.527067 1 2 cbr 210 ------- 3 1.0 2.0 145 146
- 0.527067 1 2 cbr 210 ------- 3 1.0 2.0 145 146
r 0.527155 1 2 cbr 210 ------- 3 1.0 2.0 91 92
+ 0.527253 1 2 cbr 210 ------- 3 1.0 2.0 146 147
- 0.527253 1 2 cbr 210 ------- 3 1.0 2.0 146 147
r 0.527341 1 2 cbr 210 ------- 3 1.0 2.0 92 93
+ 0.52744 1 2 cbr 210 ------- 3 1.0 2.0 147 148
- 0.52744 1 2 cbr 210 ------- 3 1.0 2.0 147 148
r 0.527528 1 2 cbr 210 ------- 3 1.0 2.0 93 94
+ 0.527627 1 2 cbr 210 ------- 3 1.0 2.0 148 149
- 0.527627 1 2 cbr 210 ------- 3 1.0 2.0 148 149
r 0.527715 1 2 cbr 210 ------- 3 1.0 2.0 94 95
+ 0.527813 1 2 cbr 210 ------- 3 1.0 2.0 149 150
- 0.527813 1 2 cbr 210 ------- 3 1.0 2.0 149 150
r 0.527901 1 2 cbr 210 ------- 3 1.0 2.0 95 96
+ 0.528 1 2 cbr 210 ------- 3 1.0 2.0 150 151
- 0.528 1 2 cbr 210 ------- 3 1.0 2.0 150 151
r 0.528088 1 2 cbr 210 ------- 3 1.0 2.0 96 97
+ 0.528187 1 2 cbr 210 ------- 3 1.0 2.0 151 152
- 0.528187 1 2 cbr 210 ------- 3 1.0 2.0 151 152
r 0.528275 1 2 cbr 210 ------- 3 1.0 2.0 97 98
+ 0.528373 1 2 cbr 210 ------- 3 1.0 2.0 152 153
- 0.528373 1 2 cbr 210 ------- 3 1.0 2.0 152 153
r 0.528461 1 2 cbr 210 ------- 3 1.0 2.0 98 99
+ 0.52856 1 2 cbr 210 ------- 3 1.0 2.0 153 154
- 0.52856 1 2 cbr 210 ------- 3 1.0 2.0 153 154
r 0.528648 1 2 cbr 210 ------- 3 1.0 2.0 99 100
+ 0.528747 1 2 cbr 210 ------- 3 1.0 2.0 154 155
- 0.528747 1 2 cbr 210 ------- 3 1.0 2.0 154 155
r 0.528835 1 2 cbr 210 ------- 3 1.0 2.0 100 101
+ 0.528933 1 2 cbr 210 ------- 3 1.0 2.0 155 156
- 0.528933 1 2 cbr 210 ------- 3 1.0 2.0 155 156
r 0.529021 1 2 cbr 210 ------- 3 1.0 2.0 101 102
+ 0.52912 1 2 cbr 210 ------- 3 1.0 2.0 156 157
- 0.52912 1 2 cbr 210 ------- 3 1.0 2.0 156 157
r 0.529208 1 2 cbr 210 ------- 3 1.0 2.0 102 103
+ 0.529307 1 2 cbr 210 ------- 3 1.0 2.0 157 158
- 0.529307 1 2 cbr 210 ------- 3 1.0 2.0 157 158
r 0.529395 1 2 cbr 210 ------- 3 1.0 2.0 103 104
+ 0.529493 1 2 cbr 210 ------- 3 1.0 2.0 158 159
- 0.529493 1 2 cbr 210 ------- 3 1.0 2.0 158 159
r 0.529581 1 2 cbr 210 ------- 3 1.0 2.0 104 105
+ 0.52968 1 2 cbr 210 ------- 3 1.0 2.0 159 160
- 0.52968 1 2 cbr 210 ------- 3 1.0 2.0 159 160
r 0.529768 1 2 cbr 210 ------- 3 1.0 2.0 105 106
+ 0.529867 1 2 cbr 210 ------- 3 1.0 2.0 160 161
- 0.529867 1 2 cbr 210 ------- 3 1.0 2.0 160 161
r 0.529955 1 2 cbr 210 ------- 3 1.0 2.0 106 107
+ 0.530053 1 2 cbr 210 ------- 3 1.0 2.0 161 162
- 0.530053 1 2 cbr 210 ------- 3 1.0 2.0 161 162
r 0.530125 2 3 tcp 40 ------- 1 0.0 3.0 0 1
+ 0.530125 3 2 ack 40 ------- 1 3.0 0.0 0 163
- 0.530125 3 2 ack 40 ------- 1 3.0 0.0 0 163
r 0.530141 1 2 cbr 210 ------- 3 1.0 2.0 107 108
+ 0.53024 1 2 cbr 210 ------- 3 1.0 2.0 162 164
- 0.53024 1 2 cbr 210 ------- 3 1.0 2.0 162 164
r 0.530328 1 2 cbr 210 ------- 3 1.0 2.0 108 109
+ 0.530427 1 2 cbr 210 ------- 3 1.0 2.0 163 165
- 0.530427 1 2 cbr 210 ------- 3 1.0 2.0 163 165
r 0.530515 1 2 cbr 210 ------- 3 1.0 2.0 109 110
+ 0.530613 1 2 cbr 210 ------- 3 1.0 2.0 164 166
- 0.530613 1 2 cbr 210 ------- 3 1.0 2.0 164 166
r 0.530701 1 2 cbr 210 ------- 3 1.0 2.0 110 111
+ 0.5308 1 2 cbr 210 ------- 3 1.0 2.0 165 167
- 0.5308 1 2 cbr 210 ------- 3 1.0 2.0 165 167
r 0.530888 1 2 cbr 210 ------- 3 1.0 2.0 111 112
+ 0.530987 1 2 cbr 210 ------- 3 1.0 2.0 166 168
- 0.530987 1 2 cbr 210 ------- 3 1.0 2.0 166 168
r 0.531075 1 2 cbr 210 ------- 3 1.0 2.0 112 113
+ 0.531173 1 2 cbr 210 ------- 3 1.0 2.0 167 169
- 0.531173 1 2 cbr 210 ------- 3 1.0 2.0 167 169
r 0.531261 1 2 cbr 210 ------- 3 1.0 2.0 113 114
+ 0.53136 1 2 cbr 210 ------- 3 1.0 2.0 168 170
- 0.53136 1 2 cbr 210 ------- 3 1.0 2.0 168 170
r 0.531448 1 2 cbr 210 ------- 3 1.0 2.0 114 115
+ 0.531547 1 2 cbr 210 ------- 3 1.0 2.0 169 171
- 0.531547 1 2 cbr 210 ------- 3 1.0 2.0 169 171
r 0.531635 1 2 cbr 210 ------- 3 1.0 2.0 115 116
+ 0.531733 1 2 cbr 210 ------- 3 1.0 2.0 170 172
- 0.531733 1 2 cbr 210 ------- 3 1.0 2.0 170 172
r 0.531821 1 2 cbr 210 ------- 3 1.0 2.0 116 117
+ 0.53192 1 2 cbr 210 ------- 3 1.0 2.0 171 173
- 0.53192 1 2 cbr 210 ------- 3 1.0 2.0 171 173
r 0.532008 1 2 cbr 210 ------- 3 1.0 2.0 117 118
+ 0.532107 1 2 cbr 210 ------- 3 1.0 2.0 172 174
- 0.532107 1 2 cbr 210 ------- 3 1.0 2.0 172 174
r 0.532195 1 2 cbr 210 ------- 3 1.0 2.0 118 119
+ 0.532293 1 2 cbr 210 ------- 3 1.0 2.0 173 175
- 0.532293 1 2 cbr 210 ------- 3 1.0 2.0 173 175
r 0.532381 1 2 cbr 210 ------- 3 1.0 2.0 119 120
+ 0.53248 1 2 cbr 210 ------- 3 1.0 2.0 174 176
- 0.53248 1 2 cbr 210 ------- 3 1.0 2.0 174 176
r 0.532568 1 2 cbr 210 ------- 3 1.0 2.0 120 121
+ 0.532667 1 2 cbr 210 ------- 3 1.0 2.0 175 177
- 0.532667 1 2 cbr 210 ------- 3 1.0 2.0 175 177
r 0.532755 1 2 cbr 210 ------- 3 1.0 2.0 121 122
+ 0.532853 1 2 cbr 210 ------- 3 1.0 2.0 176 178
- 0.532853 1 2 cbr 210 ------- 3 1.0 2.0 176 178
r 0.532941 1 2 cbr 210 ------- 3 1.0 2.0 122 123
+ 0.53304 1 2 cbr 210 ------- 3 1.0 2.0 177 179
- 0.53304 1 2 cbr 210 ------- 3 1.0 2.0 177 179
r 0.533128 1 2 cbr 210 ------- 3 1.0 2.0 123 124
+ 0.533227 1 2 cbr 210 ------- 3 1.0 2.0 178 180
- 0.533227 1 2 cbr 210 ------- 3 1.0 2.0 178 180
r 0.533315 1 2 cbr 210 ------- 3 1.0 2.0 124 125
+ 0.533413 1 2 cbr 210 ------- 3 1.0 2.0 179 181
- 0.533413 1 2 cbr 210 ------- 3 1.0 2.0 179 181
r 0.533501 1 2 cbr 210 ------- 3 1.0 2.0 125 126
+ 0.5336 1 2 cbr 210 ------- 3 1.0 2.0 180 182
- 0.5336 1 2 cbr 210 ------- 3 1.0 2.0 180 182
r 0.533688 1 2 cbr 210 ------- 3 1.0 2.0 126 127
+ 0.533787 1 2 cbr 210 ------- 3 1.0 2.0 181 183
- 0.533787 1 2 cbr 210 ------- 3 1.0 2.0 181 183
r 0.533875 1 2 cbr 210 ------- 3 1.0 2.0 127 128
+ 0.533973 1 2 cbr 210 ------- 3 1.0 2.0 182 184
- 0.533973 1 2 cbr 210 ------- 3 1.0 2.0 182 184
r 0.534061 1 2 cbr 210 ------- 3 1.0 2.0 128 129
+ 0.53416 1 2 cbr 210 ------- 3 1.0 2.0 183 185
- 0.53416 1 2 cbr 210 ------- 3 1.0 2.0 183 185
r 0.534248 1 2 cbr 210 ------- 3 1.0 2.0 129 130
+ 0.534347 1 2 cbr 210 ------- 3 1.0 2.0 184 186
- 0.534347 1 2 cbr 210 ------- 3 1.0 2.0 184 186
r 0.534435 1 2 cbr 210 ------- 3 1.0 2.0 130 131
+ 0.534533 1 2 cbr 210 ------- 3 1.0 2.0 185 187
- 0.534533 1 2 cbr 210 ------- 3 1.0 2.0 185 187
r 0.534621 1 2 cbr 210 ------- 3 1.0 2.0 131 132
+ 0.53472 1 2 cbr 210 ------- 3 1.0 2.0 186 188
- 0.53472 1 2 cbr 210 ------- 3 1.0 2.0 186 188
r 0.534808 1 2 cbr 210 ------- 3 1.0 2.0 132 133
+ 0.534907 1 2 cbr 210 ------- 3 1.0 2.0 187 189
- 0.534907 1 2 cbr 210 ------- 3 1.0 2.0 187 189
r 0.534995 1 2 cbr 210 ------- 3 1.0 2.0 133 134
+ 0.535093 1 2 cbr 210 ------- 3 1.0 2.0 188 190
- 0.535093 1 2 cbr 210 ------- 3 1.0 2.0 188 190
r 0.535181 1 2 cbr 210 ------- 3 1.0 2.0 134 135
+ 0.53528 1 2 cbr 210 ------- 3 1.0 2.0 189 191
- 0.53528 1 2 cbr 210 ------- 3 1.0 2.0 189 191
r 0.535368 1 2 cbr 210 ------- 3 1.0 2.0 135 136
+ 0.535467 1 2 cbr 210 ------- 3 1.0 2.0 190 192
- 0.535467 1 2 cbr 210 ------- 3 1.0 2.0 190 192
r 0.535555 1 2 cbr 210 ------- 3 1.0 2.0 136 137
+ 0.535653 1 2 cbr 210 ------- 3 1.0 2.0 191 193
- 0.535653 1 2 cbr 210 ------- 3 1.0 2.0 191 193
r 0.535741 1 2 cbr 210 ------- 3 1.0 2.0 137 138
+ 0.53584 1 2 cbr 210 ------- 3 1.0 2.0 192 194
- 0.53584 1 2 cbr 210 ------- 3 1.0 2.0 192 194
r 0.535928 1 2 cbr 210 ------- 3 1.0 2.0 138 139
+ 0.536027 1 2 cbr 210 ------- 3 1.0 2.0 193 195
- 0.536027 1 2 cbr 210 ------- 3 1.0 2.0 193 195
r 0.536115 1 2 cbr 210 ------- 3 1.0 2.0 139 140
+ 0.536213 1 2 cbr 210 ------- 3 1.0 2.0 194 196
- 0.536213 1 2 cbr 210 ------- 3 1.0 2.0 194 196
r 0.536301 1 2 cbr 210 ------- 3 1.0 2.0 140 141
+ 0.5364 1 2 cbr 210 ------- 3 1.0 2.0 195 197
- 0.5364 1 2 cbr 210 ------- 3 1.0 2.0 195 197
r 0.536488 1 2 cbr 210 ------- 3 1.0 2.0 141 142
+ 0.536587 1 2 cbr 210 ------- 3 1.0 2.0 196 198
- 0.536587 1 2 cbr 210 ------- 3 1.0 2.0 196 198
r 0.536675 1 2 cbr 210 ------- 3 1.0 2.0 142 143
+ 0.536773 1 2 cbr 210 ------- 3 1.0 2.0 197 199
- 0.536773 1 2 cbr 210 ------- 3 1.0 2.0 197 199
r 0.536861 1 2 cbr 210 ------- 3 1.0 2.0 143 144
+ 0.53696 1 2 cbr 210 ------- 3 1.0 2.0 198 200
- 0.53696 1 2 cbr 210 ------- 3 1.0 2.0 198 200
r 0.537048 1 2 cbr 210 ------- 3 1.0 2.0 144 145
+ 0.537147 1 2 cbr 210 ------- 3 1.0 2.0 199 201
- 0.537147 1 2 cbr 210 ------- 3 1.0 2.0 199 201
r 0.537235 1 2 cbr 210 ------- 3 1.0 2.0 145 146
+ 0.537333 1 2 cbr 210 ------- 3 1.0 2.0 200 202
- 0.537333 1 2 cbr 210 ------- 3 1.0 2.0 200 202
r 0.537421 1 2 cbr 210 ------- 3 1.0 2.0 146 147
+ 0.53752 1 2 cbr 210 ------- 3 1.0 2.0 201 203
- 0.53752 1 2 cbr 210 ------- 3 1.0 2.0 201 203
r 0.537608 1 2 cbr 210 ------- 3 1.0 2.0 147 148
+ 0.537707 1 2 cbr 210 ------- 3 1.0 2.0 202 204
- 0.537707 1 2 cbr 210 ------- 3 1.0 2.0 202 204
r 0.537795 1 2 cbr 210 ------- 3 1.0 2.0 148 149
+ 0.537893 1 2 cbr 210 ------- 3 1.0 2.0 203 205
- 0.537893 1 2 cbr 210 ------- 3 1.0 2.0 203 205
r 0.537981 1 2 cbr 210 ------- 3 1.0 2.0 149 150
+ 0.53808 1 2 cbr 210 ------- 3 1.0 2.0 204 206
- 0.53808 1 2 cbr 210 ------- 3 1.0 2.0 204 206
r 0.538168 1 2 cbr 210 ------- 3 1.0 2.0 150 151
+ 0.538267 1 2 cbr 210 ------- 3 1.0 2.0 205 207
- 0.538267 1 2 cbr 210 ------- 3 1.0 2.0 205 207
r 0.538355 1 2 cbr 210 ------- 3 1.0 2.0 151 152
+ 0.538453 1 2 cbr 210 ------- 3 1.0 2.0 206 208
- 0.538453 1 2 cbr 210 ------- 3 1.0 2.0 206 208
r 0.538541 1 2 cbr 210 ------- 3 1.0 2.0 152 153
+ 0.53864 1 2 cbr 210 ------- 3 1.0 2.0 207 209
- 0.53864 1 2 cbr 210 ------- 3 1.0 2.0 207 209
r 0.538728 1 2 cbr 210 ------- 3 1.0 2.0 153 154
+ 0.538827 1 2 cbr 210 ------- 3 1.0 2.0 208 210
- 0.538827 1 2 cbr 210 ------- 3 1.0 2.0 208 210
r 0.538915 1 2 cbr 210 ------- 3 1.0 2.0 154 155
+ 0.539013 1 2 cbr 210 ------- 3 1.0 2.0 209 211
- 0.539013 1 2 cbr 210 ------- 3 1.0 2.0 209 211
r 0.539101 1 2 cbr 210 ------- 3 1.0 2.0 155 156
+ 0.5392 1 2 cbr 210 ------- 3 1.0 2.0 210 212
- 0.5392 1 2 cbr 210 ------- 3 1.0 2.0 210 212
r 0.539288 1 2 cbr 210 ------- 3 1.0 2.0 156 157
+ 0.539387 1 2 cbr 210 ------- 3 1.0 2.0 211 213
- 0.539387 1 2 cbr 210 ------- 3 1.0 2.0 211 213
r 0.539475 1 2 cbr 210 ------- 3 1.0 2.0 157 158
+ 0.539573 1 2 cbr 210 ------- 3 1.0 2.0 212 214
- 0.539573 1 2 cbr 210 ------- 3 1.0 2.0 212 214
r 0.539661 1 2 cbr 210 ------- 3 1.0 2.0 158 159
+ 0.53976 1 2 cbr 210 ------- 3 1.0 2.0 213 215
- 0.53976 1 2 cbr 210 ------- 3 1.0 2.0 213 215
r 0.539848 1 2 cbr 210 ------- 3 1.0 2.0 159 160
+ 0.539947 1 2 cbr 210 ------- 3 1.0 2.0 214 216
- 0.539947 1 2 cbr 210 ------- 3 1.0 2.0 214 216
r 0.540035 1 2 cbr 210 ------- 3 1.0 2.0 160 161
+ 0.540133 1 2 cbr 210 ------- 3 1.0 2.0 215 217
- 0.540133 1 2 cbr 210 ------- 3 1.0 2.0 215 217
r 0.540157 3 2 ack 40 ------- 1 3.0 0.0 0 163
+ 0.540157 2 1 ack 40 ------- 1 3.0 0.0 0 163
- 0.540157 2 1 ack 40 ------- 1 3.0 0.0 0 163
r 0.540221 1 2 cbr 210 ------- 3 1.0 2.0 161 162
+ 0.54032 1 2 cbr 210 ------- 3 1.0 2.0 216 218
- 0.54032 1 2 cbr 210 ------- 3 1.0 2.0 216 218
r 0.540408 1 2 cbr 210 ------- 3 1.0 2.0 162 164
+ 0.540507 1 2 cbr 210 ------- 3 1.0 2.0 217 219
- 0.540507 1 2 cbr 210 ------- 3 1.0 2.0 217 219
r 0.540595 1 2 cbr 210 ------- 3 1.0 2.0 163 165
+ 0.540693 1 2 cbr 210 ------- 3 1.0 2.0 218 220
- 0.540693 1 2 cbr 210 ------- 3 1.0 2.0 218 220
r 0.540781 1 2 cbr 210 ------- 3 1.0 2.0 164 166
+ 0.54088 1 2 cbr 210 ------- 3 1.0 2.0 219 221
- 0.54088 1 2 cbr 210 ------- 3 1.0 2.0 219 221
r 0.540968 1 2 cbr 210 ------- 3 1.0 2.0 165 167
+ 0.541067 1 2 cbr 210 ------- 3 1.0 2.0 220 222
- 0.541067 1 2 cbr 210 ------- 3 1.0 2.0 220 222
r 0.541155 1 2 cbr 210 ------- 3 1.0 2.0 166 168
+ 0.541253 1 2 cbr 210 ------- 3 1.0 2.0 221 223
- 0.541253 1 2 cbr 210 ------- 3 1.0 2.0 221 223
r 0.541341 1 2 cbr 210 ------- 3 1.0 2.0 167 169
+ 0.54144 1 2 cbr 210 ------- 3 1.0 2.0 222 224
- 0.54144 1 2 cbr 210 ------- 3 1.0 2.0 222 224
r 0.541528 1 2 cbr 210 ------- 3 1.0 2.0 168 170
+ 0.541627 1 2 cbr 210 ------- 3 1.0 2.0 223 225