+ 0.5 0 1 tcp 40 ------- 1 0.0 3.0 0 0
- 0.5 0 1 tcp 40 ------- 1 0.0 3.0 0 0
r 0.51032 0 1 tcp 40 ------- 1 0.0 3.0 0 0
+ 0.51032 1 2 tcp 40 ------- 1 0.0 3.0 0 0
- 0.51032 1 2 tcp 40 ------- 1 0.0 3.0 0 0
r 0.52064 1 2 tcp 40 ------- 1 0.0 3.0 0 0
+ 0.52064 2 3 tcp 40 ------- 1 0.0 3.0 0 0
- 0.52064 2 3 tcp 40 ------- 1 0.0 3.0 0 0
r 0.53096 2 3 tcp 40 ------- 1 0.0 3.0 0 0
+ 0.53096 3 2 ack 40 ------- 1 3.0 0.0 0 1
- 0.53096 3 2 ack 40 ------- 1 3.0 0.0 0 1
r 0.54128 3 2 ack 40 ------- 1 3.0 0.0 0 1
+ 0.54128 2 1 ack 40 ------- 1 3.0 0.0 0 1
- 0.54128 2 1 ack 40 ------- 1 3.0 0.0 0 1
r 0.5516 2 1 ack 40 ------- 1 3.0 0.0 0 1
+ 0.5516 1 0 ack 40 ------- 1 3.0 0.0 0 1
- 0.5516 1 0 ack 40 ------- 1 3.0 0.0 0 1
r 0.56192 1 0 ack 40 ------- 1 3.0 0.0 0 1
+ 0.56192 0 1 tcp 1040 ------- 1 0.0 3.0 1 2
- 0.56192 0 1 tcp 1040 ------- 1 0.0 3.0 1 2
+ 0.56192 0 1 tcp 1040 ------- 1 0.0 3.0 2 3
- 0.57024 0 1 tcp 1040 ------- 1 0.0 3.0 2 3
r 0.58024 0 1 tcp 1040 ------- 1 0.0 3.0 1 2
+ 0.58024 1 2 tcp 1040 ------- 1 0.0 3.0 1 2
- 0.58024 1 2 tcp 1040 ------- 1 0.0 3.0 1 2
r 0.58856 0 1 tcp 1040 ------- 1 0.0 3.0 2 3
+ 0.58856 1 2 tcp 1040 ------- 1 0.0 3.0 2 3
- 0.58856 1 2 tcp 1040 ------- 1 0.0 3.0 2 3
r 0.59856 1 2 tcp 1040 ------- 1 0.0 3.0 1 2
+ 0.59856 2 3 tcp 1040 ------- 1 0.0 3.0 1 2
- 0.59856 2 3 tcp 1040 ------- 1 0.0 3.0 1 2
r 0.60688 1 2 tcp 1040 ------- 1 0.0 3.0 2 3
+ 0.60688 2 3 tcp 1040 ------- 1 0.0 3.0 2 3
- 0.60688 2 3 tcp 1040 ------- 1 0.0 3.0 2 3
r 0.61688 2 3 tcp 1040 ------- 1 0.0 3.0 1 2
+ 0.61688 3 2 ack 40 ------- 1 3.0 0.0 1 4
- 0.61688 3 2 ack 40 ------- 1 3.0 0.0 1 4
r 0.6252 2 3 tcp 1040 ------- 1 0.0 3.0 2 3
+ 0.6252 3 2 ack 40 ------- 1 3.0 0.0 2 5
- 0.6252 3 2 ack 40 ------- 1 3.0 0.0 2 5
r 0.6272 3 2 ack 40 ------- 1 3.0 0.0 1 4
+ 0.6272 2 1 ack 40 ------- 1 3.0 0.0 1 4
- 0.6272 2 1 ack 40 ------- 1 3.0 0.0 1 4
r 0.63552 3 2 ack 40 ------- 1 3.0 0.0 2 5
+ 0.63552 2 1 ack 40 ------- 1 3.0 0.0 2 5
- 0.63552 2 1 ack 40 ------- 1 3.0 0.0 2 5
r 0.63752 2 1 ack 40 ------- 1 3.0 0.0 1 4
+ 0.63752 1 0 ack 40 ------- 1 3.0 0.0 1 4
- 0.63752 1 0 ack 40 ------- 1 3.0 0.0 1 4
r 0.64584 2 1 ack 40 ------- 1 3.0 0.0 2 5
+ 0.64584 1 0 ack 40 ------- 1 3.0 0.0 2 5
- 0.64584 1 0 ack 40 ------- 1 3.0 0.0 2 5
r 0.64784 1 0 ack 40 ------- 1 3.0 0.0 1 4
+ 0.64784 0 1 tcp 1040 ------- 1 0.0 3.0 3 6
- 0.64784 0 1 tcp 1040 ------- 1 0.0 3.0 3 6
+ 0.64784 0 1 tcp 1040 ------- 1 0.0 3.0 4 7
r 0.65616 1 0 ack 40 ------- 1 3.0 0.0 2 5
+ 0.65616 0 1 tcp 1040 ------- 1 0.0 3.0 5 8
+ 0.65616 0 1 tcp 1040 ------- 1 0.0 3.0 6 9
- 0.65616 0 1 tcp 1040 ------- 1 0.0 3.0 4 7
- 0.66448 0 1 tcp 1040 ------- 1 0.0 3.0 5 8
r 0.66616 0 1 tcp 1040 ------- 1 0.0 3.0 3 6
+ 0.66616 1 2 tcp 1040 ------- 1 0.0 3.0 3 6
- 0.66616 1 2 tcp 1040 ------- 1 0.0 3.0 3 6
- 0.6728 0 1 tcp 1040 ------- 1 0.0 3.0 6 9
r 0.67448 0 1 tcp 1040 ------- 1 0.0 3.0 4 7
+ 0.67448 1 2 tcp 1040 ------- 1 0.0 3.0 4 7
- 0.67448 1 2 tcp 1040 ------- 1 0.0 3.0 4 7
r 0.6828 0 1 tcp 1040 ------- 1 0.0 3.0 5 8
+ 0.6828 1 2 tcp 1040 ------- 1 0.0 3.0 5 8
- 0.6828 1 2 tcp 1040 ------- 1 0.0 3.0 5 8
r 0.68448 1 2 tcp 1040 ------- 1 0.0 3.0 3 6
+ 0.68448 2 3 tcp 1040 ------- 1 0.0 3.0 3 6
- 0.68448 2 3 tcp 1040 ------- 1 0.0 3.0 3 6
r 0.69112 0 1 tcp 1040 ------- 1 0.0 3.0 6 9
+ 0.69112 1 2 tcp 1040 ------- 1 0.0 3.0 6 9
- 0.69112 1 2 tcp 1040 ------- 1 0.0 3.0 6 9
r 0.6928 1 2 tcp 1040 ------- 1 0.0 3.0 4 7
+ 0.6928 2 3 tcp 1040 ------- 1 0.0 3.0 4 7
- 0.6928 2 3 tcp 1040 ------- 1 0.0 3.0 4 7
r 0.70112 1 2 tcp 1040 ------- 1 0.0 3.0 5 8
+ 0.70112 2 3 tcp 1040 ------- 1 0.0 3.0 5 8
- 0.70112 2 3 tcp 1040 ------- 1 0.0 3.0 5 8
r 0.7028 2 3 tcp 1040 ------- 1 0.0 3.0 3 6
+ 0.7028 3 2 ack 40 ------- 1 3.0 0.0 3 10
- 0.7028 3 2 ack 40 ------- 1 3.0 0.0 3 10
r 0.70944 1 2 tcp 1040 ------- 1 0.0 3.0 6 9
+ 0.70944 2 3 tcp 1040 ------- 1 0.0 3.0 6 9
- 0.70944 2 3 tcp 1040 ------- 1 0.0 3.0 6 9
r 0.71112 2 3 tcp 1040 ------- 1 0.0 3.0 4 7
+ 0.71112 3 2 ack 40 ------- 1 3.0 0.0 4 11
- 0.71112 3 2 ack 40 ------- 1 3.0 0.0 4 11
r 0.71312 3 2 ack 40 ------- 1 3.0 0.0 3 10
+ 0.71312 2 1 ack 40 ------- 1 3.0 0.0 3 10
- 0.71312 2 1 ack 40 ------- 1 3.0 0.0 3 10
r 0.71944 2 3 tcp 1040 ------- 1 0.0 3.0 5 8
+ 0.71944 3 2 ack 40 ------- 1 3.0 0.0 5 12
- 0.71944 3 2 ack 40 ------- 1 3.0 0.0 5 12
r 0.72144 3 2 ack 40 ------- 1 3.0 0.0 4 11
+ 0.72144 2 1 ack 40 ------- 1 3.0 0.0 4 11
- 0.72144 2 1 ack 40 ------- 1 3.0 0.0 4 11
r 0.72344 2 1 ack 40 ------- 1 3.0 0.0 3 10
+ 0.72344 1 0 ack 40 ------- 1 3.0 0.0 3 10
- 0.72344 1 0 ack 40 ------- 1 3.0 0.0 3 10
r 0.72776 2 3 tcp 1040 ------- 1 0.0 3.0 6 9
+ 0.72776 3 2 ack 40 ------- 1 3.0 0.0 6 13
- 0.72776 3 2 ack 40 ------- 1 3.0 0.0 6 13
r 0.72976 3 2 ack 40 ------- 1 3.0 0.0 5 12
+ 0.72976 2 1 ack 40 ------- 1 3.0 0.0 5 12
- 0.72976 2 1 ack 40 ------- 1 3.0 0.0 5 12
r 0.73176 2 1 ack 40 ------- 1 3.0 0.0 4 11
+ 0.73176 1 0 ack 40 ------- 1 3.0 0.0 4 11
- 0.73176 1 0 ack 40 ------- 1 3.0 0.0 4 11
r 0.73376 1 0 ack 40 ------- 1 3.0 0.0 3 10
+ 0.73376 0 1 tcp 1040 ------- 1 0.0 3.0 7 14
- 0.73376 0 1 tcp 1040 ------- 1 0.0 3.0 7 14
+ 0.73376 0 1 tcp 1040 ------- 1 0.0 3.0 8 15
r 0.73808 3 2 ack 40 ------- 1 3.0 0.0 6 13
+ 0.73808 2 1 ack 40 ------- 1 3.0 0.0 6 13
- 0.73808 2 1 ack 40 ------- 1 3.0 0.0 6 13
r 0.74008 2 1 ack 40 ------- 1 3.0 0.0 5 12
+ 0.74008 1 0 ack 40 ------- 1 3.0 0.0 5 12
- 0.74008 1 0 ack 40 ------- 1 3.0 0.0 5 12
r 0.74208 1 0 ack 40 ------- 1 3.0 0.0 4 11
+ 0.74208 0 1 tcp 1040 ------- 1 0.0 3.0 9 16
+ 0.74208 0 1 tcp 1040 ------- 1 0.0 3.0 10 17
- 0.74208 0 1 tcp 1040 ------- 1 0.0 3.0 8 15
r 0.7484 2 1 ack 40 ------- 1 3.0 0.0 6 13
+ 0.7484 1 0 ack 40 ------- 1 3.0 0.0 6 13
- 0.7484 1 0 ack 40 ------- 1 3.0 0.0 6 13
r 0.7504 1 0 ack 40 ------- 1 3.0 0.0 5 12
+ 0.7504 0 1 tcp 1040 ------- 1 0.0 3.0 11 18
+ 0.7504 0 1 tcp 1040 ------- 1 0.0 3.0 12 19
- 0.7504 0 1 tcp 1040 ------- 1 0.0 3.0 9 16
r 0.75208 0 1 tcp 1040 ------- 1 0.0 3.0 7 14
+ 0.75208 1 2 tcp 1040 ------- 1 0.0 3.0 7 14
- 0.75208 1 2 tcp 1040 ------- 1 0.0 3.0 7 14
r 0.75872 1 0 ack 40 ------- 1 3.0 0.0 6 13
+ 0.75872 0 1 tcp 1040 ------- 1 0.0 3.0 13 20
+ 0.75872 0 1 tcp 1040 ------- 1 0.0 3.0 14 21
- 0.75872 0 1 tcp 1040 ------- 1 0.0 3.0 10 17
r 0.7604 0 1 tcp 1040 ------- 1 0.0 3.0 8 15
+ 0.7604 1 2 tcp 1040 ------- 1 0.0 3.0 8 15
- 0.7604 1 2 tcp 1040 ------- 1 0.0 3.0 8 15
- 0.76704 0 1 tcp 1040 ------- 1 0.0 3.0 11 18
r 0.76872 0 1 tcp 1040 ------- 1 0.0 3.0 9 16
+ 0.76872 1 2 tcp 1040 ------- 1 0.0 3.0 9 16
- 0.76872 1 2 tcp 1040 ------- 1 0.0 3.0 9 16
r 0.7704 1 2 tcp 1040 ------- 1 0.0 3.0 7 14
+ 0.7704 2 3 tcp 1040 ------- 1 0.0 3.0 7 14
- 0.7704 2 3 tcp 1040 ------- 1 0.0 3.0 7 14
- 0.77536 0 1 tcp 1040 ------- 1 0.0 3.0 12 19
r 0.77704 0 1 tcp 1040 ------- 1 0.0 3.0 10 17
+ 0.77704 1 2 tcp 1040 ------- 1 0.0 3.0 10 17
- 0.77704 1 2 tcp 1040 ------- 1 0.0 3.0 10 17
r 0.77872 1 2 tcp 1040 ------- 1 0.0 3.0 8 15
+ 0.77872 2 3 tcp 1040 ------- 1 0.0 3.0 8 15
- 0.77872 2 3 tcp 1040 ------- 1 0.0 3.0 8 15
- 0.78368 0 1 tcp 1040 ------- 1 0.0 3.0 13 20
r 0.78536 0 1 tcp 1040 ------- 1 0.0 3.0 11 18
+ 0.78536 1 2 tcp 1040 ------- 1 0.0 3.0 11 18
- 0.78536 1 2 tcp 1040 ------- 1 0.0 3.0 11 18
r 0.78704 1 2 tcp 1040 ------- 1 0.0 3.0 9 16
+ 0.78704 2 3 tcp 1040 ------- 1 0.0 3.0 9 16
- 0.78704 2 3 tcp 1040 ------- 1 0.0 3.0 9 16
r 0.78872 2 3 tcp 1040 ------- 1 0.0 3.0 7 14
+ 0.78872 3 2 ack 40 ------- 1 3.0 0.0 7 22
- 0.78872 3 2 ack 40 ------- 1 3.0 0.0 7 22
- 0.792 0 1 tcp 1040 ------- 1 0.0 3.0 14 21
r 0.79368 0 1 tcp 1040 ------- 1 0.0 3.0 12 19
+ 0.79368 1 2 tcp 1040 ------- 1 0.0 3.0 12 19
- 0.79368 1 2 tcp 1040 ------- 1 0.0 3.0 12 19
r 0.79536 1 2 tcp 1040 ------- 1 0.0 3.0 10 17
+ 0.79536 2 3 tcp 1040 ------- 1 0.0 3.0 10 17
- 0.79536 2 3 tcp 1040 ------- 1 0.0 3.0 10 17
r 0.79704 2 3 tcp 1040 ------- 1 0.0 3.0 8 15
+ 0.79704 3 2 ack 40 ------- 1 3.0 0.0 8 23
- 0.79704 3 2 ack 40 ------- 1 3.0 0.0 8 23
r 0.79904 3 2 ack 40 ------- 1 3.0 0.0 7 22
+ 0.79904 2 1 ack 40 ------- 1 3.0 0.0 7 22
- 0.79904 2 1 ack 40 ------- 1 3.0 0.0 7 22
r 0.802 0 1 tcp 1040 ------- 1 0.0 3.0 13 20
+ 0.802 1 2 tcp 1040 ------- 1 0.0 3.0 13 20
- 0.802 1 2 tcp 1040 ------- 1 0.0 3.0 13 20
r 0.80368 1 2 tcp 1040 ------- 1 0.0 3.0 11 18
+ 0.80368 2 3 tcp 1040 ------- 1 0.0 3.0 11 18
- 0.80368 2 3 tcp 1040 ------- 1 0.0 3.0 11 18
r 0.80536 2 3 tcp 1040 ------- 1 0.0 3.0 9 16
+ 0.80536 3 2 ack 40 ------- 1 3.0 0.0 9 24
- 0.80536 3 2 ack 40 ------- 1 3.0 0.0 9 24
r 0.80736 3 2 ack 40 ------- 1 3.0 0.0 8 23
+ 0.80736 2 1 ack 40 ------- 1 3.0 0.0 8 23
- 0.80736 2 1 ack 40 ------- 1 3.0 0.0 8 23
r 0.80936 2 1 ack 40 ------- 1 3.0 0.0 7 22
+ 0.80936 1 0 ack 40 ------- 1 3.0 0.0 7 22
- 0.80936 1 0 ack 40 ------- 1 3.0 0.0 7 22
r 0.81032 0 1 tcp 1040 ------- 1 0.0 3.0 14 21
+ 0.81032 1 2 tcp 1040 ------- 1 0.0 3.0 14 21
- 0.81032 1 2 tcp 1040 ------- 1 0.0 3.0 14 21
r 0.812 1 2 tcp 1040 ------- 1 0.0 3.0 12 19
+ 0.812 2 3 tcp 1040 ------- 1 0.0 3.0 12 19
- 0.812 2 3 tcp 1040 ------- 1 0.0 3.0 12 19
r 0.81368 2 3 tcp 1040 ------- 1 0.0 3.0 10 17
+ 0.81368 3 2 ack 40 ------- 1 3.0 0.0 10 25
- 0.81368 3 2 ack 40 ------- 1 3.0 0.0 10 25
r 0.81568 3 2 ack 40 ------- 1 3.0 0.0 9 24
+ 0.81568 2 1 ack 40 ------- 1 3.0 0.0 9 24
- 0.81568 2 1 ack 40 ------- 1 3.0 0.0 9 24
r 0.81768 2 1 ack 40 ------- 1 3.0 0.0 8 23
+ 0.81768 1 0 ack 40 ------- 1 3.0 0.0 8 23
- 0.81768 1 0 ack 40 ------- 1 3.0 0.0 8 23
r 0.81968 1 0 ack 40 ------- 1 3.0 0.0 7 22
+ 0.81968 0 1 tcp 1040 ------- 1 0.0 3.0 15 26
- 0.81968 0 1 tcp 1040 ------- 1 0.0 3.0 15 26
+ 0.81968 0 1 tcp 1040 ------- 1 0.0 3.0 16 27
r 0.82032 1 2 tcp 1040 ------- 1 0.0 3.0 13 20
+ 0.82032 2 3 tcp 1040 ------- 1 0.0 3.0 13 20
- 0.82032 2 3 tcp 1040 ------- 1 0.0 3.0 13 20
r 0.822 2 3 tcp 1040 ------- 1 0.0 3.0 11 18
+ 0.822 3 2 ack 40 ------- 1 3.0 0.0 11 28
- 0.822 3 2 ack 40 ------- 1 3.0 0.0 11 28
r 0.824 3 2 ack 40 ------- 1 3.0 0.0 10 25
+ 0.824 2 1 ack 40 ------- 1 3.0 0.0 10 25
- 0.824 2 1 ack 40 ------- 1 3.0 0.0 10 25
r 0.826 2 1 ack 40 ------- 1 3.0 0.0 9 24
+ 0.826 1 0 ack 40 ------- 1 3.0 0.0 9 24
- 0.826 1 0 ack 40 ------- 1 3.0 0.0 9 24
r 0.828 1 0 ack 40 ------- 1 3.0 0.0 8 23
+ 0.828 0 1 tcp 1040 ------- 1 0.0 3.0 17 29
+ 0.828 0 1 tcp 1040 ------- 1 0.0 3.0 18 30
- 0.828 0 1 tcp 1040 ------- 1 0.0 3.0 16 27
r 0.82864 1 2 tcp 1040 ------- 1 0.0 3.0 14 21
+ 0.82864 2 3 tcp 1040 ------- 1 0.0 3.0 14 21
- 0.82864 2 3 tcp 1040 ------- 1 0.0 3.0 14 21
r 0.83032 2 3 tcp 1040 ------- 1 0.0 3.0 12 19
+ 0.83032 3 2 ack 40 ------- 1 3.0 0.0 12 31
- 0.83032 3 2 ack 40 ------- 1 3.0 0.0 12 31
r 0.83232 3 2 ack 40 ------- 1 3.0 0.0 11 28
+ 0.83232 2 1 ack 40 ------- 1 3.0 0.0 11 28
- 0.83232 2 1 ack 40 ------- 1 3.0 0.0 11 28
r 0.83432 2 1 ack 40 ------- 1 3.0 0.0 10 25
+ 0.83432 1 0 ack 40 ------- 1 3.0 0.0 10 25
- 0.83432 1 0 ack 40 ------- 1 3.0 0.0 10 25
r 0.83632 1 0 ack 40 ------- 1 3.0 0.0 9 24
+ 0.83632 0 1 tcp 1040 ------- 1 0.0 3.0 19 32
+ 0.83632 0 1 tcp 1040 ------- 1 0.0 3.0 20 33
- 0.83632 0 1 tcp 1040 ------- 1 0.0 3.0 17 29
r 0.838 0 1 tcp 1040 ------- 1 0.0 3.0 15 26
+ 0.838 1 2 tcp 1040 ------- 1 0.0 3.0 15 26
- 0.838 1 2 tcp 1040 ------- 1 0.0 3.0 15 26
r 0.83864 2 3 tcp 1040 ------- 1 0.0 3.0 13 20
+ 0.83864 3 2 ack 40 ------- 1 3.0 0.0 13 34
- 0.83864 3 2 ack 40 ------- 1 3.0 0.0 13 34
r 0.84064 3 2 ack 40 ------- 1 3.0 0.0 12 31
+ 0.84064 2 1 ack 40 ------- 1 3.0 0.0 12 31
- 0.84064 2 1 ack 40 ------- 1 3.0 0.0 12 31
r 0.84264 2 1 ack 40 ------- 1 3.0 0.0 11 28
+ 0.84264 1 0 ack 40 ------- 1 3.0 0.0 11 28
- 0.84264 1 0 ack 40 ------- 1 3.0 0.0 11 28
r 0.84464 1 0 ack 40 ------- 1 3.0 0.0 10 25
+ 0.84464 0 1 tcp 1040 ------- 1 0.0 3.0 21 35
+ 0.84464 0 1 tcp 1040 ------- 1 0.0 3.0 22 36
- 0.84464 0 1 tcp 1040 ------- 1 0.0 3.0 18 30
r 0.84632 0 1 tcp 1040 ------- 1 0.0 3.0 16 27
+ 0.84632 1 2 tcp 1040 ------- 1 0.0 3.0 16 27
- 0.84632 1 2 tcp 1040 ------- 1 0.0 3.0 16 27
r 0.84696 2 3 tcp 1040 ------- 1 0.0 3.0 14 21
+ 0.84696 3 2 ack 40 ------- 1 3.0 0.0 14 37
- 0.84696 3 2 ack 40 ------- 1 3.0 0.0 14 37
r 0.84896 3 2 ack 40 ------- 1 3.0 0.0 13 34
+ 0.84896 2 1 ack 40 ------- 1 3.0 0.0 13 34
- 0.84896 2 1 ack 40 ------- 1 3.0 0.0 13 34
r 0.85096 2 1 ack 40 ------- 1 3.0 0.0 12 31
+ 0.85096 1 0 ack 40 ------- 1 3.0 0.0 12 31
- 0.85096 1 0 ack 40 ------- 1 3.0 0.0 12 31
r 0.85296 1 0 ack 40 ------- 1 3.0 0.0 11 28
+ 0.85296 0 1 tcp 1040 ------- 1 0.0 3.0 23 38
+ 0.85296 0 1 tcp 1040 ------- 1 0.0 3.0 24 39
- 0.85296 0 1 tcp 1040 ------- 1 0.0 3.0 19 32
r 0.85464 0 1 tcp 1040 ------- 1 0.0 3.0 17 29
+ 0.85464 1 2 tcp 1040 ------- 1 0.0 3.0 17 29
- 0.85464 1 2 tcp 1040 ------- 1 0.0 3.0 17 29
r 0.85632 1 2 tcp 1040 ------- 1 0.0 3.0 15 26
+ 0.85632 2 3 tcp 1040 ------- 1 0.0 3.0 15 26
- 0.85632 2 3 tcp 1040 ------- 1 0.0 3.0 15 26
r 0.85728 3 2 ack 40 ------- 1 3.0 0.0 14 37
+ 0.85728 2 1 ack 40 ------- 1 3.0 0.0 14 37
- 0.85728 2 1 ack 40 ------- 1 3.0 0.0 14 37
r 0.85928 2 1 ack 40 ------- 1 3.0 0.0 13 34
+ 0.85928 1 0 ack 40 ------- 1 3.0 0.0 13 34
- 0.85928 1 0 ack 40 ------- 1 3.0 0.0 13 34
r 0.86128 1 0 ack 40 ------- 1 3.0 0.0 12 31
+ 0.86128 0 1 tcp 1040 ------- 1 0.0 3.0 25 40
+ 0.86128 0 1 tcp 1040 ------- 1 0.0 3.0 26 41
- 0.86128 0 1 tcp 1040 ------- 1 0.0 3.0 20 33
r 0.86296 0 1 tcp 1040 ------- 1 0.0 3.0 18 30
+ 0.86296 1 2 tcp 1040 ------- 1 0.0 3.0 18 30
- 0.86296 1 2 tcp 1040 ------- 1 0.0 3.0 18 30
r 0.86464 1 2 tcp 1040 ------- 1 0.0 3.0 16 27
+ 0.86464 2 3 tcp 1040 ------- 1 0.0 3.0 16 27
- 0.86464 2 3 tcp 1040 ------- 1 0.0 3.0 16 27
r 0.8676 2 1 ack 40 ------- 1 3.0 0.0 14 37
+ 0.8676 1 0 ack 40 ------- 1 3.0 0.0 14 37
- 0.8676 1 0 ack 40 ------- 1 3.0 0.0 14 37
r 0.8696 1 0 ack 40 ------- 1 3.0 0.0 13 34
+ 0.8696 0 1 tcp 1040 ------- 1 0.0 3.0 27 42
+ 0.8696 0 1 tcp 1040 ------- 1 0.0 3.0 28 43
- 0.8696 0 1 tcp 1040 ------- 1 0.0 3.0 21 35
r 0.87128 0 1 tcp 1040 ------- 1 0.0 3.0 19 32
+ 0.87128 1 2 tcp 1040 ------- 1 0.0 3.0 19 32
- 0.87128 1 2 tcp 1040 ------- 1 0.0 3.0 19 32
r 0.87296 1 2 tcp 1040 ------- 1 0.0 3.0 17 29
+ 0.87296 2 3 tcp 1040 ------- 1 0.0 3.0 17 29
- 0.87296 2 3 tcp 1040 ------- 1 0.0 3.0 17 29
r 0.87464 2 3 tcp 1040 ------- 1 0.0 3.0 15 26
+ 0.87464 3 2 ack 40 ------- 1 3.0 0.0 15 44
- 0.87464 3 2 ack 40 ------- 1 3.0 0.0 15 44
r 0.87792 1 0 ack 40 ------- 1 3.0 0.0 14 37
+ 0.87792 0 1 tcp 1040 ------- 1 0.0 3.0 29 45
+ 0.87792 0 1 tcp 1040 ------- 1 0.0 3.0 30 46
- 0.87792 0 1 tcp 1040 ------- 1 0.0 3.0 22 36
r 0.8796 0 1 tcp 1040 ------- 1 0.0 3.0 20 33
+ 0.8796 1 2 tcp 1040 ------- 1 0.0 3.0 20 33
- 0.8796 1 2 tcp 1040 ------- 1 0.0 3.0 20 33
r 0.88128 1 2 tcp 1040 ------- 1 0.0 3.0 18 30
+ 0.88128 2 3 tcp 1040 ------- 1 0.0 3.0 18 30
- 0.88128 2 3 tcp 1040 ------- 1 0.0 3.0 18 30
r 0.88296 2 3 tcp 1040 ------- 1 0.0 3.0 16 27
+ 0.88296 3 2 ack 40 ------- 1 3.0 0.0 16 47
- 0.88296 3 2 ack 40 ------- 1 3.0 0.0 16 47
r 0.88496 3 2 ack 40 ------- 1 3.0 0.0 15 44
+ 0.88496 2 1 ack 40 ------- 1 3.0 0.0 15 44
- 0.88496 2 1 ack 40 ------- 1 3.0 0.0 15 44
- 0.88624 0 1 tcp 1040 ------- 1 0.0 3.0 23 38
r 0.88792 0 1 tcp 1040 ------- 1 0.0 3.0 21 35
+ 0.88792 1 2 tcp 1040 ------- 1 0.0 3.0 21 35
- 0.88792 1 2 tcp 1040 ------- 1 0.0 3.0 21 35
r 0.8896 1 2 tcp 1040 ------- 1 0.0 3.0 19 32
+ 0.8896 2 3 tcp 1040 ------- 1 0.0 3.0 19 32
- 0.8896 2 3 tcp 1040 ------- 1 0.0 3.0 19 32
r 0.89128 2 3 tcp 1040 ------- 1 0.0 3.0 17 29
+ 0.89128 3 2 ack 40 ------- 1 3.0 0.0 17 48
- 0.89128 3 2 ack 40 ------- 1 3.0 0.0 17 48
r 0.89328 3 2 ack 40 ------- 1 3.0 0.0 16 47
+ 0.89328 2 1 ack 40 ------- 1 3.0 0.0 16 47
- 0.89328 2 1 ack 40 ------- 1 3.0 0.0 16 47
- 0.89456 0 1 tcp 1040 ------- 1 0.0 3.0 24 39
r 0.89528 2 1 ack 40 ------- 1 3.0 0.0 15 44
+ 0.89528 1 0 ack 40 ------- 1 3.0 0.0 15 44
- 0.89528 1 0 ack 40 ------- 1 3.0 0.0 15 44
r 0.89624 0 1 tcp 1040 ------- 1 0.0 3.0 22 36
+ 0.89624 1 2 tcp 1040 ------- 1 0.0 3.0 22 36
- 0.89624 1 2 tcp 1040 ------- 1 0.0 3.0 22 36
r 0.89792 1 2 tcp 1040 ------- 1 0.0 3.0 20 33
+ 0.89792 2 3 tcp 1040 ------- 1 0.0 3.0 20 33
- 0.89792 2 3 tcp 1040 ------- 1 0.0 3.0 20 33
r 0.8996 2 3 tcp 1040 ------- 1 0.0 3.0 18 30
+ 0.8996 3 2 ack 40 ------- 1 3.0 0.0 18 49
- 0.8996 3 2 ack 40 ------- 1 3.0 0.0 18 49
r 0.9016 3 2 ack 40 ------- 1 3.0 0.0 17 48
+ 0.9016 2 1 ack 40 ------- 1 3.0 0.0 17 48
- 0.9016 2 1 ack 40 ------- 1 3.0 0.0 17 48
- 0.90288 0 1 tcp 1040 ------- 1 0.0 3.0 25 40
r 0.9036 2 1 ack 40 ------- 1 3.0 0.0 16 47
+ 0.9036 1 0 ack 40 ------- 1 3.0 0.0 16 47
- 0.9036 1 0 ack 40 ------- 1 3.0 0.0 16 47
r 0.90456 0 1 tcp 1040 ------- 1 0.0 3.0 23 38
+ 0.90456 1 2 tcp 1040 ------- 1 0.0 3.0 23 38
- 0.90456 1 2 tcp 1040 ------- 1 0.0 3.0 23 38
r 0.9056 1 0 ack 40 ------- 1 3.0 0.0 15 44
+ 0.9056 0 1 tcp 1040 ------- 1 0.0 3.0 31 50
+ 0.9056 0 1 tcp 1040 ------- 1 0.0 3.0 32 51
r 0.90624 1 2 tcp 1040 ------- 1 0.0 3.0 21 35
+ 0.90624 2 3 tcp 1040 ------- 1 0.0 3.0 21 35
- 0.90624 2 3 tcp 1040 ------- 1 0.0 3.0 21 35
r 0.90792 2 3 tcp 1040 ------- 1 0.0 3.0 19 32
+ 0.90792 3 2 ack 40 ------- 1 3.0 0.0 19 52
- 0.90792 3 2 ack 40 ------- 1 3.0 0.0 19 52
r 0.90992 3 2 ack 40 ------- 1 3.0 0.0 18 49
+ 0.90992 2 1 ack 40 ------- 1 3.0 0.0 18 49
- 0.90992 2 1 ack 40 ------- 1 3.0 0.0 18 49
- 0.9112 0 1 tcp 1040 ------- 1 0.0 3.0 26 41
r 0.91192 2 1 ack 40 ------- 1 3.0 0.0 17 48
+ 0.91192 1 0 ack 40 ------- 1 3.0 0.0 17 48
- 0.91192 1 0 ack 40 ------- 1 3.0 0.0 17 48
r 0.91288 0 1 tcp 1040 ------- 1 0.0 3.0 24 39
+ 0.91288 1 2 tcp 1040 ------- 1 0.0 3.0 24 39
- 0.91288 1 2 tcp 1040 ------- 1 0.0 3.0 24 39
r 0.91392 1 0 ack 40 ------- 1 3.0 0.0 16 47
+ 0.91392 0 1 tcp 1040 ------- 1 0.0 3.0 33 53
+ 0.91392 0 1 tcp 1040 ------- 1 0.0 3.0 34 54
r 0.91456 1 2 tcp 1040 ------- 1 0.0 3.0 22 36
+ 0.91456 2 3 tcp 1040 ------- 1 0.0 3.0 22 36
- 0.91456 2 3 tcp 1040 ------- 1 0.0 3.0 22 36
r 0.91624 2 3 tcp 1040 ------- 1 0.0 3.0 20 33
+ 0.91624 3 2 ack 40 ------- 1 3.0 0.0 20 55
- 0.91624 3 2 ack 40 ------- 1 3.0 0.0 20 55
r 0.91824 3 2 ack 40 ------- 1 3.0 0.0 19 52
+ 0.91824 2 1 ack 40 ------- 1 3.0 0.0 19 52
- 0.91824 2 1 ack 40 ------- 1 3.0 0.0 19 52
- 0.91952 0 1 tcp 1040 ------- 1 0.0 3.0 27 42
r 0.92024 2 1 ack 40 ------- 1 3.0 0.0 18 49
+ 0.92024 1 0 ack 40 ------- 1 3.0 0.0 18 49
- 0.92024 1 0 ack 40 ------- 1 3.0 0.0 18 49
r 0.9212 0 1 tcp 1040 ------- 1 0.0 3.0 25 40
+ 0.9212 1 2 tcp 1040 ------- 1 0.0 3.0 25 40
- 0.9212 1 2 tcp 1040 ------- 1 0.0 3.0 25 40
r 0.92224 1 0 ack 40 ------- 1 3.0 0.0 17 48
+ 0.92224 0 1 tcp 1040 ------- 1 0.0 3.0 35 56
+ 0.92224 0 1 tcp 1040 ------- 1 0.0 3.0 36 57
r 0.92288 1 2 tcp 1040 ------- 1 0.0 3.0 23 38
+ 0.92288 2 3 tcp 1040 ------- 1 0.0 3.0 23 38
- 0.92288 2 3 tcp 1040 ------- 1 0.0 3.0 23 38
r 0.92456 2 3 tcp 1040 ------- 1 0.0 3.0 21 35
+ 0.92456 3 2 ack 40 ------- 1 3.0 0.0 21 58
- 0.92456 3 2 ack 40 ------- 1 3.0 0.0 21 58
r 0.92656 3 2 ack 40 ------- 1 3.0 0.0 20 55
+ 0.92656 2 1 ack 40 ------- 1 3.0 0.0 20 55
- 0.92656 2 1 ack 40 ------- 1 3.0 0.0 20 55
- 0.92784 0 1 tcp 1040 ------- 1 0.0 3.0 28 43
r 0.92856 2 1 ack 40 ------- 1 3.0 0.0 19 52
+ 0.92856 1 0 ack 40 ------- 1 3.0 0.0 19 52
- 0.92856 1 0 ack 40 ------- 1 3.0 0.0 19 52
r 0.92952 0 1 tcp 1040 ------- 1 0.0 3.0 26 41
+ 0.92952 1 2 tcp 1040 ------- 1 0.0 3.0 26 41
- 0.92952 1 2 tcp 1040 ------- 1 0.0 3.0 26 41
r 0.93056 1 0 ack 40 ------- 1 3.0 0.0 18 49
+ 0.93056 0 1 tcp 1040 ------- 1 0.0 3.0 37 59
+ 0.93056 0 1 tcp 1040 ------- 1 0.0 3.0 38 60
r 0.9312 1 2 tcp 1040 ------- 1 0.0 3.0 24 39
+ 0.9312 2 3 tcp 1040 ------- 1 0.0 3.0 24 39
- 0.9312 2 3 tcp 1040 ------- 1 0.0 3.0 24 39
r 0.93288 2 3 tcp 1040 ------- 1 0.0 3.0 22 36
+ 0.93288 3 2 ack 40 ------- 1 3.0 0.0 22 61
- 0.93288 3 2 ack 40 ------- 1 3.0 0.0 22 61
r 0.93488 3 2 ack 40 ------- 1 3.0 0.0 21 58
+ 0.93488 2 1 ack 40 ------- 1 3.0 0.0 21 58
- 0.93488 2 1 ack 40 ------- 1 3.0 0.0 21 58
- 0.93616 0 1 tcp 1040 ------- 1 0.0 3.0 29 45
r 0.93688 2 1 ack 40 ------- 1 3.0 0.0 20 55
+ 0.93688 1 0 ack 40 ------- 1 3.0 0.0 20 55
- 0.93688 1 0 ack 40 ------- 1 3.0 0.0 20 55
r 0.93784 0 1 tcp 1040 ------- 1 0.0 3.0 27 42
+ 0.93784 1 2 tcp 1040 ------- 1 0.0 3.0 27 42
- 0.93784 1 2 tcp 1040 ------- 1 0.0 3.0 27 42
r 0.93888 1 0 ack 40 ------- 1 3.0 0.0 19 52
+ 0.93888 0 1 tcp 1040 ------- 1 0.0 3.0 39 62
r 0.93952 1 2 tcp 1040 ------- 1 0.0 3.0 25 40
+ 0.93952 2 3 tcp 1040 ------- 1 0.0 3.0 25 40
- 0.93952 2 3 tcp 1040 ------- 1 0.0 3.0 25 40
r 0.9412 2 3 tcp 1040 ------- 1 0.0 3.0 23 38
+ 0.9412 3 2 ack 40 ------- 1 3.0 0.0 23 63
- 0.9412 3 2 ack 40 ------- 1 3.0 0.0 23 63
r 0.9432 3 2 ack 40 ------- 1 3.0 0.0 22 61
+ 0.9432 2 1 ack 40 ------- 1 3.0 0.0 22 61
- 0.9432 2 1 ack 40 ------- 1 3.0 0.0 22 61
- 0.94448 0 1 tcp 1040 ------- 1 0.0 3.0 30 46
r 0.9452 2 1 ack 40 ------- 1 3.0 0.0 21 58
+ 0.9452 1 0 ack 40 ------- 1 3.0 0.0 21 58
- 0.9452 1 0 ack 40 ------- 1 3.0 0.0 21 58
r 0.94616 0 1 tcp 1040 ------- 1 0.0 3.0 28 43
+ 0.94616 1 2 tcp 1040 ------- 1 0.0 3.0 28 43
- 0.94616 1 2 tcp 1040 ------- 1 0.0 3.0 28 43
r 0.9472 1 0 ack 40 ------- 1 3.0 0.0 20 55
+ 0.9472 0 1 tcp 1040 ------- 1 0.0 3.0 40 64
r 0.94784 1 2 tcp 1040 ------- 1 0.0 3.0 26 41
+ 0.94784 2 3 tcp 1040 ------- 1 0.0 3.0 26 41
- 0.94784 2 3 tcp 1040 ------- 1 0.0 3.0 26 41
r 0.94952 2 3 tcp 1040 ------- 1 0.0 3.0 24 39
+ 0.94952 3 2 ack 40 ------- 1 3.0 0.0 24 65
- 0.94952 3 2 ack 40 ------- 1 3.0 0.0 24 65
r 0.95152 3 2 ack 40 ------- 1 3.0 0.0 23 63
+ 0.95152 2 1 ack 40 ------- 1 3.0 0.0 23 63
- 0.95152 2 1 ack 40 ------- 1 3.0 0.0 23 63
- 0.9528 0 1 tcp 1040 ------- 1 0.0 3.0 31 50
r 0.95352 2 1 ack 40 ------- 1 3.0 0.0 22 61
+ 0.95352 1 0 ack 40 ------- 1 3.0 0.0 22 61
- 0.95352 1 0 ack 40 ------- 1 3.0 0.0 22 61
r 0.95448 0 1 tcp 1040 ------- 1 0.0 3.0 29 45
+ 0.95448 1 2 tcp 1040 ------- 1 0.0 3.0 29 45
- 0.95448 1 2 tcp 1040 ------- 1 0.0 3.0 29 45
r 0.95552 1 0 ack 40 ------- 1 3.0 0.0 21 58
+ 0.95552 0 1 tcp 1040 ------- 1 0.0 3.0 41 66
r 0.95616 1 2 tcp 1040 ------- 1 0.0 3.0 27 42
+ 0.95616 2 3 tcp 1040 ------- 1 0.0 3.0 27 42
- 0.95616 2 3 tcp 1040 ------- 1 0.0 3.0 27 42
r 0.95784 2 3 tcp 1040 ------- 1 0.0 3.0 25 40
+ 0.95784 3 2 ack 40 ------- 1 3.0 0.0 25 67
- 0.95784 3 2 ack 40 ------- 1 3.0 0.0 25 67
r 0.95984 3 2 ack 40 ------- 1 3.0 0.0 24 65
+ 0.95984 2 1 ack 40 ------- 1 3.0 0.0 24 65
- 0.95984 2 1 ack 40 ------- 1 3.0 0.0 24 65
- 0.96112 0 1 tcp 1040 ------- 1 0.0 3.0 32 51
r 0.96184 2 1 ack 40 ------- 1 3.0 0.0 23 63
+ 0.96184 1 0 ack 40 ------- 1 3.0 0.0 23 63
- 0.96184 1 0 ack 40 ------- 1 3.0 0.0 23 63
r 0.9628 0 1 tcp 1040 ------- 1 0.0 3.0 30 46
+ 0.9628 1 2 tcp 1040 ------- 1 0.0 3.0 30 46
- 0.9628 1 2 tcp 1040 ------- 1 0.0 3.0 30 46
r 0.96384 1 0 ack 40 ------- 1 3.0 0.0 22 61
+ 0.96384 0 1 tcp 1040 ------- 1 0.0 3.0 42 68
r 0.96448 1 2 tcp 1040 ------- 1 0.0 3.0 28 43
+ 0.96448 2 3 tcp 1040 ------- 1 0.0 3.0 28 43
- 0.96448 2 3 tcp 1040 ------- 1 0.0 3.0 28 43
r 0.96616 2 3 tcp 1040 ------- 1 0.0 3.0 26 41
+ 0.96616 3 2 ack 40 ------- 1 3.0 0.0 26 69
- 0.96616 3 2 ack 40 ------- 1 3.0 0.0 26 69
r 0.96816 3 2 ack 40 ------- 1 3.0 0.0 25 67
+ 0.96816 2 1 ack 40 ------- 1 3.0 0.0 25 67
- 0.96816 2 1 ack 40 ------- 1 3.0 0.0 25 67
- 0.96944 0 1 tcp 1040 ------- 1 0.0 3.0 33 53
r 0.97016 2 1 ack 40 ------- 1 3.0 0.0 24 65
+ 0.97016 1 0 ack 40 ------- 1 3.0 0.0 24 65
- 0.97016 1 0 ack 40 ------- 1 3.0 0.0 24 65
r 0.97112 0 1 tcp 1040 ------- 1 0.0 3.0 31 50
+ 0.97112 1 2 tcp 1040 ------- 1 0.0 3.0 31 50
- 0.97112 1 2 tcp 1040 ------- 1 0.0 3.0 31 50
r 0.97216 1 0 ack 40 ------- 1 3.0 0.0 23 63
+ 0.97216 0 1 tcp 1040 ------- 1 0.0 3.0 43 70
r 0.9728 1 2 tcp 1040 ------- 1 0.0 3.0 29 45
+ 0.9728 2 3 tcp 1040 ------- 1 0.0 3.0 29 45
- 0.9728 2 3 tcp 1040 ------- 1 0.0 3.0 29 45
r 0.97448 2 3 tcp 1040 ------- 1 0.0 3.0 27 42
+ 0.97448 3 2 ack 40 ------- 1 3.0 0.0 27 71
- 0.97448 3 2 ack 40 ------- 1 3.0 0.0 27 71
r 0.97648 3 2 ack 40 ------- 1 3.0 0.0 26 69
+ 0.97648 2 1 ack 40 ------- 1 3.0 0.0 26 69
- 0.97648 2 1 ack 40 ------- 1 3.0 0.0 26 69
- 0.97776 0 1 tcp 1040 ------- 1 0.0 3.0 34 54
r 0.97848 2 1 ack 40 ------- 1 3.0 0.0 25 67
+ 0.97848 1 0 ack 40 ------- 1 3.0 0.0 25 67
- 0.97848 1 0 ack 40 ------- 1 3.0 0.0 25 67
r 0.97944 0 1 tcp 1040 ------- 1 0.0 3.0 32 51
+ 0.97944 1 2 tcp 1040 ------- 1 0.0 3.0 32 51
- 0.97944 1 2 tcp 1040 ------- 1 0.0 3.0 32 51
r 0.98048 1 0 ack 40 ------- 1 3.0 0.0 24 65
+ 0.98048 0 1 tcp 1040 ------- 1 0.0 3.0 44 72
r 0.98112 1 2 tcp 1040 ------- 1 0.0 3.0 30 46
+ 0.98112 2 3 tcp 1040 ------- 1 0.0 3.0 30 46
- 0.98112 2 3 tcp 1040 ------- 1 0.0 3.0 30 46
r 0.9828 2 3 tcp 1040 ------- 1 0.0 3.0 28 43
+ 0.9828 3 2 ack 40 ------- 1 3.0 0.0 28 73
- 0.9828 3 2 ack 40 ------- 1 3.0 0.0 28 73
r 0.9848 3 2 ack 40 ------- 1 3.0 0.0 27 71
+ 0.9848 2 1 ack 40 ------- 1 3.0 0.0 27 71
- 0.9848 2 1 ack 40 ------- 1 3.0 0.0 27 71
- 0.98608 0 1 tcp 1040 ------- 1 0.0 3.0 35 56
r 0.9868 2 1 ack 40 ------- 1 3.0 0.0 26 69
+ 0.9868 1 0 ack 40 ------- 1 3.0 0.0 26 69
- 0.9868 1 0 ack 40 ------- 1 3.0 0.0 26 69
r 0.98776 0 1 tcp 1040 ------- 1 0.0 3.0 33 53
+ 0.98776 1 2 tcp 1040 ------- 1 0.0 3.0 33 53
- 0.98776 1 2 tcp 1040 ------- 1 0.0 3.0 33 53
r 0.9888 1 0 ack 40 ------- 1 3.0 0.0 25 67
+ 0.9888 0 1 tcp 1040 ------- 1 0.0 3.0 45 74
r 0.98944 1 2 tcp 1040 ------- 1 0.0 3.0 31 50
+ 0.98944 2 3 tcp 1040 ------- 1 0.0 3.0 31 50
- 0.98944 2 3 tcp 1040 ------- 1 0.0 3.0 31 50
r 0.99112 2 3 tcp 1040 ------- 1 0.0 3.0 29 45
+ 0.99112 3 2 ack 40 ------- 1 3.0 0.0 29 75
- 0.99112 3 2 ack 40 ------- 1 3.0 0.0 29 75
r 0.99312 3 2 ack 40 ------- 1 3.0 0.0 28 73
+ 0.99312 2 1 ack 40 ------- 1 3.0 0.0 28 73
- 0.99312 2 1 ack 40 ------- 1 3.0 0.0 28 73
- 0.9944 0 1 tcp 1040 ------- 1 0.0 3.0 36 57
r 0.99512 2 1 ack 40 ------- 1 3.0 0.0 27 71
+ 0.99512 1 0 ack 40 ------- 1 3.0 0.0 27 71
- 0.99512 1 0 ack 40 ------- 1 3.0 0.0 27 71
r 0.99608 0 1 tcp 1040 ------- 1 0.0 3.0 34 54
+ 0.99608 1 2 tcp 1040 ------- 1 0.0 3.0 34 54
- 0.99608 1 2 tcp 1040 ------- 1 0.0 3.0 34 54
r 0.99712 1 0 ack 40 ------- 1 3.0 0.0 26 69
+ 0.99712 0 1 tcp 1040 ------- 1 0.0 3.0 46 76
r 0.99776 1 2 tcp 1040 ------- 1 0.0 3.0 32 51
+ 0.99776 2 3 tcp 1040 ------- 1 0.0 3.0 32 51
- 0.99776 2 3 tcp 1040 ------- 1 0.0 3.0 32 51
r 0.99944 2 3 tcp 1040 ------- 1 0.0 3.0 30 46
+ 0.99944 3 2 ack 40 ------- 1 3.0 0.0 30 77
- 0.99944 3 2 ack 40 ------- 1 3.0 0.0 30 77
r 1.00144 3 2 ack 40 ------- 1 3.0 0.0 29 75
+ 1.00144 2 1 ack 40 ------- 1 3.0 0.0 29 75
- 1.00144 2 1 ack 40 ------- 1 3.0 0.0 29 75
- 1.00272 0 1 tcp 1040 ------- 1 0.0 3.0 37 59
r 1.00344 2 1 ack 40 ------- 1 3.0 0.0 28 73
+ 1.00344 1 0 ack 40 ------- 1 3.0 0.0 28 73
- 1.00344 1 0 ack 40 ------- 1 3.0 0.0 28 73
r 1.0044 0 1 tcp 1040 ------- 1 0.0 3.0 35 56
+ 1.0044 1 2 tcp 1040 ------- 1 0.0 3.0 35 56
- 1.0044 1 2 tcp 1040 ------- 1 0.0 3.0 35 56
r 1.00544 1 0 ack 40 ------- 1 3.0 0.0 27 71
+ 1.00544 0 1 tcp 1040 ------- 1 0.0 3.0 47 78
r 1.00608 1 2 tcp 1040 ------- 1 0.0 3.0 33 53
+ 1.00608 2 3 tcp 1040 ------- 1 0.0 3.0 33 53
- 1.00608 2 3 tcp 1040 ------- 1 0.0 3.0 33 53
r 1.00776 2 3 tcp 1040 ------- 1 0.0 3.0 31 50
+ 1.00776 3 2 ack 40 ------- 1 3.0 0.0 31 79
- 1.00776 3 2 ack 40 ------- 1 3.0 0.0 31 79
r 1.00976 3 2 ack 40 ------- 1 3.0 0.0 30 77
+ 1.00976 2 1 ack 40 ------- 1 3.0 0.0 30 77
- 1.00976 2 1 ack 40 ------- 1 3.0 0.0 30 77
- 1.01104 0 1 tcp 1040 ------- 1 0.0 3.0 38 60
r 1.01176 2 1 ack 40 ------- 1 3.0 0.0 29 75
+ 1.01176 1 0 ack 40 ------- 1 3.0 0.0 29 75
- 1.01176 1 0 ack 40 ------- 1 3.0 0.0 29 75
r 1.01272 0 1 tcp 1040 ------- 1 0.0 3.0 36 57
+ 1.01272 1 2 tcp 1040 ------- 1 0.0 3.0 36 57
- 1.01272 1 2 tcp 1040 ------- 1 0.0 3.0 36 57
r 1.01376 1 0 ack 40 ------- 1 3.0 0.0 28 73
+ 1.01376 0 1 tcp 1040 ------- 1 0.0 3.0 48 80
r 1.0144 1 2 tcp 1040 ------- 1 0.0 3.0 34 54
+ 1.0144 2 3 tcp 1040 ------- 1 0.0 3.0 34 54
- 1.0144 2 3 tcp 1040 ------- 1 0.0 3.0 34 54
r 1.01608 2 3 tcp 1040 ------- 1 0.0 3.0 32 51
+ 1.01608 3 2 ack 40 ------- 1 3.0 0.0 32 81
- 1.01608 3 2 ack 40 ------- 1 3.0 0.0 32 81
r 1.01808 3 2 ack 40 ------- 1 3.0 0.0 31 79
+ 1.01808 2 1 ack 40 ------- 1 3.0 0.0 31 79
- 1.01808 2 1 ack 40 ------- 1 3.0 0.0 31 79
- 1.01936 0 1 tcp 1040 ------- 1 0.0 3.0 39 62
r 1.02008 2 1 ack 40 ------- 1 3.0 0.0 30 77
+ 1.02008 1 0 ack 40 ------- 1 3.0 0.0 30 77
- 1.02008 1 0 ack 40 ------- 1 3.0 0.0 30 77
r 1.02104 0 1 tcp 1040 ------- 1 0.0 3.0 37 59
+ 1.02104 1 2 tcp 1040 ------- 1 0.0 3.0 37 59
- 1.02104 1 2 tcp 1040 ------- 1 0.0 3.0 37 59
r 1.02208 1 0 ack 40 ------- 1 3.0 0.0 29 75
+ 1.02208 0 1 tcp 1040 ------- 1 0.0 3.0 49 82
r 1.02272 1 2 tcp 1040 ------- 1 0.0 3.0 35 56
+ 1.02272 2 3 tcp 1040 ------- 1 0.0 3.0 35 56
- 1.02272 2 3 tcp 1040 ------- 1 0.0 3.0 35 56
r 1.0244 2 3 tcp 1040 ------- 1 0.0 3.0 33 53
+ 1.0244 3 2 ack 40 ------- 1 3.0 0.0 33 83
- 1.0244 3 2 ack 40 ------- 1 3.0 0.0 33 83
r 1.0264 3 2 ack 40 ------- 1 3.0 0.0 32 81
+ 1.0264 2 1 ack 40 ------- 1 3.0 0.0 32 81
- 1.0264 2 1 ack 40 ------- 1 3.0 0.0 32 81
- 1.02768 0 1 tcp 1040 ------- 1 0.0 3.0 40 64
r 1.0284 2 1 ack 40 ------- 1 3.0 0.0 31 79
+ 1.0284 1 0 ack 40 ------- 1 3.0 0.0 31 79
- 1.0284 1 0 ack 40 ------- 1 3.0 0.0 31 79
r 1.02936 0 1 tcp 1040 ------- 1 0.0 3.0 38 60
+ 1.02936 1 2 tcp 1040 ------- 1 0.0 3.0 38 60
- 1.02936 1 2 tcp 1040 ------- 1 0.0 3.0 38 60
r 1.0304 1 0 ack 40 ------- 1 3.0 0.0 30 77
+ 1.0304 0 1 tcp 1040 ------- 1 0.0 3.0 50 84
r 1.03104 1 2 tcp 1040 ------- 1 0.0 3.0 36 57
+ 1.03104 2 3 tcp 1040 ------- 1 0.0 3.0 36 57
- 1.03104 2 3 tcp 1040 ------- 1 0.0 3.0 36 57
r 1.03272 2 3 tcp 1040 ------- 1 0.0 3.0 34 54
+ 1.03272 3 2 ack 40 ------- 1 3.0 0.0 34 85
- 1.03272 3 2 ack 40 ------- 1 3.0 0.0 34 85
r 1.03472 3 2 ack 40 ------- 1 3.0 0.0 33 83
+ 1.03472 2 1 ack 40 ------- 1 3.0 0.0 33 83
- 1.03472 2 1 ack 40 ------- 1 3.0 0.0 33 83
- 1.036 0 1 tcp 1040 ------- 1 0.0 3.0 41 66
r 1.03672 2 1 ack 40 ------- 1 3.0 0.0 32 81
+ 1.03672 1 0 ack 40 ------- 1 3.0 0.0 32 81
- 1.03672 1 0 ack 40 ------- 1 3.0 0.0 32 81
r 1.03768 0 1 tcp 1040 ------- 1 0.0 3.0 39 62
+ 1.03768 1 2 tcp 1040 ------- 1 0.0 3.0 39 62