+ 0.5 1 2 cbr 210 ------- 3 1.0 2.0 0 0
- 0.5 1 2 cbr 210 ------- 3 1.0 2.0 0 0
+ 0.5 0 1 tcp 40 ------- 1 0.0 3.0 0 1
- 0.5 0 1 tcp 40 ------- 1 0.0 3.0 0 1
+ 0.50021 1 2 cbr 210 ------- 3 1.0 2.0 1 2
- 0.50021 1 2 cbr 210 ------- 3 1.0 2.0 1 2
+ 0.50042 1 2 cbr 210 ------- 3 1.0 2.0 2 3
- 0.50042 1 2 cbr 210 ------- 3 1.0 2.0 2 3
+ 0.50063 1 2 cbr 210 ------- 3 1.0 2.0 3 4
- 0.50063 1 2 cbr 210 ------- 3 1.0 2.0 3 4
+ 0.50084 1 2 cbr 210 ------- 3 1.0 2.0 4 5
- 0.50084 1 2 cbr 210 ------- 3 1.0 2.0 4 5
+ 0.50105 1 2 cbr 210 ------- 3 1.0 2.0 5 6
- 0.50105 1 2 cbr 210 ------- 3 1.0 2.0 5 6
+ 0.50126 1 2 cbr 210 ------- 3 1.0 2.0 6 7
- 0.50126 1 2 cbr 210 ------- 3 1.0 2.0 6 7
+ 0.50147 1 2 cbr 210 ------- 3 1.0 2.0 7 8
- 0.50147 1 2 cbr 210 ------- 3 1.0 2.0 7 8
+ 0.50168 1 2 cbr 210 ------- 3 1.0 2.0 8 9
- 0.50168 1 2 cbr 210 ------- 3 1.0 2.0 8 9
+ 0.50189 1 2 cbr 210 ------- 3 1.0 2.0 9 10
- 0.50189 1 2 cbr 210 ------- 3 1.0 2.0 9 10
+ 0.5021 1 2 cbr 210 ------- 3 1.0 2.0 10 11
- 0.5021 1 2 cbr 210 ------- 3 1.0 2.0 10 11
+ 0.50231 1 2 cbr 210 ------- 3 1.0 2.0 11 12
- 0.50231 1 2 cbr 210 ------- 3 1.0 2.0 11 12
+ 0.50252 1 2 cbr 210 ------- 3 1.0 2.0 12 13
- 0.50252 1 2 cbr 210 ------- 3 1.0 2.0 12 13
+ 0.50273 1 2 cbr 210 ------- 3 1.0 2.0 13 14
- 0.50273 1 2 cbr 210 ------- 3 1.0 2.0 13 14
+ 0.50294 1 2 cbr 210 ------- 3 1.0 2.0 14 15
- 0.50294 1 2 cbr 210 ------- 3 1.0 2.0 14 15
+ 0.50315 1 2 cbr 210 ------- 3 1.0 2.0 15 16
- 0.50315 1 2 cbr 210 ------- 3 1.0 2.0 15 16
+ 0.50336 1 2 cbr 210 ------- 3 1.0 2.0 16 17
- 0.50336 1 2 cbr 210 ------- 3 1.0 2.0 16 17
+ 0.50357 1 2 cbr 210 ------- 3 1.0 2.0 17 18
- 0.50357 1 2 cbr 210 ------- 3 1.0 2.0 17 18
+ 0.50378 1 2 cbr 210 ------- 3 1.0 2.0 18 19
- 0.50378 1 2 cbr 210 ------- 3 1.0 2.0 18 19
+ 0.50399 1 2 cbr 210 ------- 3 1.0 2.0 19 20
- 0.50399 1 2 cbr 210 ------- 3 1.0 2.0 19 20
+ 0.5042 1 2 cbr 210 ------- 3 1.0 2.0 20 21
- 0.5042 1 2 cbr 210 ------- 3 1.0 2.0 20 21
+ 0.50441 1 2 cbr 210 ------- 3 1.0 2.0 21 22
- 0.50441 1 2 cbr 210 ------- 3 1.0 2.0 21 22
+ 0.50462 1 2 cbr 210 ------- 3 1.0 2.0 22 23
- 0.50462 1 2 cbr 210 ------- 3 1.0 2.0 22 23
+ 0.50483 1 2 cbr 210 ------- 3 1.0 2.0 23 24
- 0.50483 1 2 cbr 210 ------- 3 1.0 2.0 23 24
+ 0.50504 1 2 cbr 210 ------- 3 1.0 2.0 24 25
- 0.50504 1 2 cbr 210 ------- 3 1.0 2.0 24 25
+ 0.50525 1 2 cbr 210 ------- 3 1.0 2.0 25 26
- 0.50525 1 2 cbr 210 ------- 3 1.0 2.0 25 26
+ 0.50546 1 2 cbr 210 ------- 3 1.0 2.0 26 27
- 0.50546 1 2 cbr 210 ------- 3 1.0 2.0 26 27
+ 0.50567 1 2 cbr 210 ------- 3 1.0 2.0 27 28
- 0.50567 1 2 cbr 210 ------- 3 1.0 2.0 27 28
+ 0.50588 1 2 cbr 210 ------- 3 1.0 2.0 28 29
- 0.50588 1 2 cbr 210 ------- 3 1.0 2.0 28 29
+ 0.50609 1 2 cbr 210 ------- 3 1.0 2.0 29 30
- 0.50609 1 2 cbr 210 ------- 3 1.0 2.0 29 30
+ 0.5063 1 2 cbr 210 ------- 3 1.0 2.0 30 31
- 0.5063 1 2 cbr 210 ------- 3 1.0 2.0 30 31
+ 0.50651 1 2 cbr 210 ------- 3 1.0 2.0 31 32
- 0.50651 1 2 cbr 210 ------- 3 1.0 2.0 31 32
+ 0.50672 1 2 cbr 210 ------- 3 1.0 2.0 32 33
- 0.50672 1 2 cbr 210 ------- 3 1.0 2.0 32 33
+ 0.50693 1 2 cbr 210 ------- 3 1.0 2.0 33 34
- 0.50693 1 2 cbr 210 ------- 3 1.0 2.0 33 34
+ 0.50714 1 2 cbr 210 ------- 3 1.0 2.0 34 35
- 0.50714 1 2 cbr 210 ------- 3 1.0 2.0 34 35
+ 0.50735 1 2 cbr 210 ------- 3 1.0 2.0 35 36
- 0.50735 1 2 cbr 210 ------- 3 1.0 2.0 35 36
+ 0.50756 1 2 cbr 210 ------- 3 1.0 2.0 36 37
- 0.50756 1 2 cbr 210 ------- 3 1.0 2.0 36 37
+ 0.50777 1 2 cbr 210 ------- 3 1.0 2.0 37 38
- 0.50777 1 2 cbr 210 ------- 3 1.0 2.0 37 38
+ 0.50798 1 2 cbr 210 ------- 3 1.0 2.0 38 39
- 0.50798 1 2 cbr 210 ------- 3 1.0 2.0 38 39
+ 0.50819 1 2 cbr 210 ------- 3 1.0 2.0 39 40
- 0.50819 1 2 cbr 210 ------- 3 1.0 2.0 39 40
+ 0.5084 1 2 cbr 210 ------- 3 1.0 2.0 40 41
- 0.5084 1 2 cbr 210 ------- 3 1.0 2.0 40 41
+ 0.50861 1 2 cbr 210 ------- 3 1.0 2.0 41 42
- 0.50861 1 2 cbr 210 ------- 3 1.0 2.0 41 42
+ 0.50882 1 2 cbr 210 ------- 3 1.0 2.0 42 43
- 0.50882 1 2 cbr 210 ------- 3 1.0 2.0 42 43
+ 0.50903 1 2 cbr 210 ------- 3 1.0 2.0 43 44
- 0.50903 1 2 cbr 210 ------- 3 1.0 2.0 43 44
+ 0.50924 1 2 cbr 210 ------- 3 1.0 2.0 44 45
- 0.50924 1 2 cbr 210 ------- 3 1.0 2.0 44 45
+ 0.50945 1 2 cbr 210 ------- 3 1.0 2.0 45 46
- 0.50945 1 2 cbr 210 ------- 3 1.0 2.0 45 46
+ 0.50966 1 2 cbr 210 ------- 3 1.0 2.0 46 47
- 0.50966 1 2 cbr 210 ------- 3 1.0 2.0 46 47
+ 0.50987 1 2 cbr 210 ------- 3 1.0 2.0 47 48
- 0.50987 1 2 cbr 210 ------- 3 1.0 2.0 47 48
r 0.510032 0 1 tcp 40 ------- 1 0.0 3.0 0 1
+ 0.510032 1 2 tcp 40 ------- 1 0.0 3.0 0 1
- 0.510038 1 2 tcp 40 ------- 1 0.0 3.0 0 1
+ 0.51008 1 2 cbr 210 ------- 3 1.0 2.0 48 49
- 0.51008 1 2 cbr 210 ------- 3 1.0 2.0 48 49
r 0.510168 1 2 cbr 210 ------- 3 1.0 2.0 0 0
+ 0.51029 1 2 cbr 210 ------- 3 1.0 2.0 49 50
- 0.51029 1 2 cbr 210 ------- 3 1.0 2.0 49 50
r 0.510378 1 2 cbr 210 ------- 3 1.0 2.0 1 2
+ 0.5105 1 2 cbr 210 ------- 3 1.0 2.0 50 51
- 0.5105 1 2 cbr 210 ------- 3 1.0 2.0 50 51
r 0.510588 1 2 cbr 210 ------- 3 1.0 2.0 2 3
+ 0.51071 1 2 cbr 210 ------- 3 1.0 2.0 51 52
- 0.51071 1 2 cbr 210 ------- 3 1.0 2.0 51 52
r 0.510798 1 2 cbr 210 ------- 3 1.0 2.0 3 4
+ 0.51092 1 2 cbr 210 ------- 3 1.0 2.0 52 53
- 0.51092 1 2 cbr 210 ------- 3 1.0 2.0 52 53
r 0.511008 1 2 cbr 210 ------- 3 1.0 2.0 4 5
+ 0.51113 1 2 cbr 210 ------- 3 1.0 2.0 53 54
- 0.51113 1 2 cbr 210 ------- 3 1.0 2.0 53 54
r 0.511218 1 2 cbr 210 ------- 3 1.0 2.0 5 6
+ 0.51134 1 2 cbr 210 ------- 3 1.0 2.0 54 55
- 0.51134 1 2 cbr 210 ------- 3 1.0 2.0 54 55
r 0.511428 1 2 cbr 210 ------- 3 1.0 2.0 6 7
+ 0.51155 1 2 cbr 210 ------- 3 1.0 2.0 55 56
- 0.51155 1 2 cbr 210 ------- 3 1.0 2.0 55 56
r 0.511638 1 2 cbr 210 ------- 3 1.0 2.0 7 8
+ 0.51176 1 2 cbr 210 ------- 3 1.0 2.0 56 57
- 0.51176 1 2 cbr 210 ------- 3 1.0 2.0 56 57
r 0.511848 1 2 cbr 210 ------- 3 1.0 2.0 8 9
+ 0.51197 1 2 cbr 210 ------- 3 1.0 2.0 57 58
- 0.51197 1 2 cbr 210 ------- 3 1.0 2.0 57 58
r 0.512058 1 2 cbr 210 ------- 3 1.0 2.0 9 10
+ 0.51218 1 2 cbr 210 ------- 3 1.0 2.0 58 59
- 0.51218 1 2 cbr 210 ------- 3 1.0 2.0 58 59
r 0.512268 1 2 cbr 210 ------- 3 1.0 2.0 10 11
+ 0.51239 1 2 cbr 210 ------- 3 1.0 2.0 59 60
- 0.51239 1 2 cbr 210 ------- 3 1.0 2.0 59 60
r 0.512478 1 2 cbr 210 ------- 3 1.0 2.0 11 12
+ 0.5126 1 2 cbr 210 ------- 3 1.0 2.0 60 61
- 0.5126 1 2 cbr 210 ------- 3 1.0 2.0 60 61
r 0.512688 1 2 cbr 210 ------- 3 1.0 2.0 12 13
+ 0.51281 1 2 cbr 210 ------- 3 1.0 2.0 61 62
- 0.51281 1 2 cbr 210 ------- 3 1.0 2.0 61 62
r 0.512898 1 2 cbr 210 ------- 3 1.0 2.0 13 14
+ 0.51302 1 2 cbr 210 ------- 3 1.0 2.0 62 63
- 0.51302 1 2 cbr 210 ------- 3 1.0 2.0 62 63
r 0.513108 1 2 cbr 210 ------- 3 1.0 2.0 14 15
+ 0.51323 1 2 cbr 210 ------- 3 1.0 2.0 63 64
- 0.51323 1 2 cbr 210 ------- 3 1.0 2.0 63 64
r 0.513318 1 2 cbr 210 ------- 3 1.0 2.0 15 16
+ 0.51344 1 2 cbr 210 ------- 3 1.0 2.0 64 65
- 0.51344 1 2 cbr 210 ------- 3 1.0 2.0 64 65
r 0.513528 1 2 cbr 210 ------- 3 1.0 2.0 16 17
+ 0.51365 1 2 cbr 210 ------- 3 1.0 2.0 65 66
- 0.51365 1 2 cbr 210 ------- 3 1.0 2.0 65 66
r 0.513738 1 2 cbr 210 ------- 3 1.0 2.0 17 18
+ 0.51386 1 2 cbr 210 ------- 3 1.0 2.0 66 67
- 0.51386 1 2 cbr 210 ------- 3 1.0 2.0 66 67
r 0.513948 1 2 cbr 210 ------- 3 1.0 2.0 18 19
+ 0.51407 1 2 cbr 210 ------- 3 1.0 2.0 67 68
- 0.51407 1 2 cbr 210 ------- 3 1.0 2.0 67 68
r 0.514158 1 2 cbr 210 ------- 3 1.0 2.0 19 20
+ 0.51428 1 2 cbr 210 ------- 3 1.0 2.0 68 69
- 0.51428 1 2 cbr 210 ------- 3 1.0 2.0 68 69
r 0.514368 1 2 cbr 210 ------- 3 1.0 2.0 20 21
+ 0.51449 1 2 cbr 210 ------- 3 1.0 2.0 69 70
- 0.51449 1 2 cbr 210 ------- 3 1.0 2.0 69 70
r 0.514578 1 2 cbr 210 ------- 3 1.0 2.0 21 22
+ 0.5147 1 2 cbr 210 ------- 3 1.0 2.0 70 71
- 0.5147 1 2 cbr 210 ------- 3 1.0 2.0 70 71
r 0.514788 1 2 cbr 210 ------- 3 1.0 2.0 22 23
+ 0.51491 1 2 cbr 210 ------- 3 1.0 2.0 71 72
- 0.51491 1 2 cbr 210 ------- 3 1.0 2.0 71 72
r 0.514998 1 2 cbr 210 ------- 3 1.0 2.0 23 24
+ 0.51512 1 2 cbr 210 ------- 3 1.0 2.0 72 73
- 0.51512 1 2 cbr 210 ------- 3 1.0 2.0 72 73
r 0.515208 1 2 cbr 210 ------- 3 1.0 2.0 24 25
+ 0.51533 1 2 cbr 210 ------- 3 1.0 2.0 73 74
- 0.51533 1 2 cbr 210 ------- 3 1.0 2.0 73 74
r 0.515418 1 2 cbr 210 ------- 3 1.0 2.0 25 26
+ 0.51554 1 2 cbr 210 ------- 3 1.0 2.0 74 75
- 0.51554 1 2 cbr 210 ------- 3 1.0 2.0 74 75
r 0.515628 1 2 cbr 210 ------- 3 1.0 2.0 26 27
+ 0.51575 1 2 cbr 210 ------- 3 1.0 2.0 75 76
- 0.51575 1 2 cbr 210 ------- 3 1.0 2.0 75 76
r 0.515838 1 2 cbr 210 ------- 3 1.0 2.0 27 28
+ 0.51596 1 2 cbr 210 ------- 3 1.0 2.0 76 77
- 0.51596 1 2 cbr 210 ------- 3 1.0 2.0 76 77
r 0.516048 1 2 cbr 210 ------- 3 1.0 2.0 28 29
+ 0.51617 1 2 cbr 210 ------- 3 1.0 2.0 77 78
- 0.51617 1 2 cbr 210 ------- 3 1.0 2.0 77 78
r 0.516258 1 2 cbr 210 ------- 3 1.0 2.0 29 30
+ 0.51638 1 2 cbr 210 ------- 3 1.0 2.0 78 79
- 0.51638 1 2 cbr 210 ------- 3 1.0 2.0 78 79
r 0.516468 1 2 cbr 210 ------- 3 1.0 2.0 30 31
+ 0.51659 1 2 cbr 210 ------- 3 1.0 2.0 79 80
- 0.51659 1 2 cbr 210 ------- 3 1.0 2.0 79 80
r 0.516678 1 2 cbr 210 ------- 3 1.0 2.0 31 32
+ 0.5168 1 2 cbr 210 ------- 3 1.0 2.0 80 81
- 0.5168 1 2 cbr 210 ------- 3 1.0 2.0 80 81
r 0.516888 1 2 cbr 210 ------- 3 1.0 2.0 32 33
+ 0.51701 1 2 cbr 210 ------- 3 1.0 2.0 81 82
- 0.51701 1 2 cbr 210 ------- 3 1.0 2.0 81 82
r 0.517098 1 2 cbr 210 ------- 3 1.0 2.0 33 34
+ 0.51722 1 2 cbr 210 ------- 3 1.0 2.0 82 83
- 0.51722 1 2 cbr 210 ------- 3 1.0 2.0 82 83
r 0.517308 1 2 cbr 210 ------- 3 1.0 2.0 34 35
+ 0.51743 1 2 cbr 210 ------- 3 1.0 2.0 83 84
- 0.51743 1 2 cbr 210 ------- 3 1.0 2.0 83 84
r 0.517518 1 2 cbr 210 ------- 3 1.0 2.0 35 36
+ 0.51764 1 2 cbr 210 ------- 3 1.0 2.0 84 85
- 0.51764 1 2 cbr 210 ------- 3 1.0 2.0 84 85
r 0.517728 1 2 cbr 210 ------- 3 1.0 2.0 36 37
+ 0.51785 1 2 cbr 210 ------- 3 1.0 2.0 85 86
- 0.51785 1 2 cbr 210 ------- 3 1.0 2.0 85 86
r 0.517938 1 2 cbr 210 ------- 3 1.0 2.0 37 38
+ 0.51806 1 2 cbr 210 ------- 3 1.0 2.0 86 87
- 0.51806 1 2 cbr 210 ------- 3 1.0 2.0 86 87
r 0.518148 1 2 cbr 210 ------- 3 1.0 2.0 38 39
+ 0.51827 1 2 cbr 210 ------- 3 1.0 2.0 87 88
- 0.51827 1 2 cbr 210 ------- 3 1.0 2.0 87 88
r 0.518358 1 2 cbr 210 ------- 3 1.0 2.0 39 40
+ 0.51848 1 2 cbr 210 ------- 3 1.0 2.0 88 89
- 0.51848 1 2 cbr 210 ------- 3 1.0 2.0 88 89
r 0.518568 1 2 cbr 210 ------- 3 1.0 2.0 40 41
+ 0.51869 1 2 cbr 210 ------- 3 1.0 2.0 89 90
- 0.51869 1 2 cbr 210 ------- 3 1.0 2.0 89 90
r 0.518778 1 2 cbr 210 ------- 3 1.0 2.0 41 42
+ 0.5189 1 2 cbr 210 ------- 3 1.0 2.0 90 91
- 0.5189 1 2 cbr 210 ------- 3 1.0 2.0 90 91
r 0.518988 1 2 cbr 210 ------- 3 1.0 2.0 42 43
+ 0.51911 1 2 cbr 210 ------- 3 1.0 2.0 91 92
- 0.51911 1 2 cbr 210 ------- 3 1.0 2.0 91 92
r 0.519198 1 2 cbr 210 ------- 3 1.0 2.0 43 44
+ 0.51932 1 2 cbr 210 ------- 3 1.0 2.0 92 93
- 0.51932 1 2 cbr 210 ------- 3 1.0 2.0 92 93
r 0.519408 1 2 cbr 210 ------- 3 1.0 2.0 44 45
+ 0.51953 1 2 cbr 210 ------- 3 1.0 2.0 93 94
- 0.51953 1 2 cbr 210 ------- 3 1.0 2.0 93 94
r 0.519618 1 2 cbr 210 ------- 3 1.0 2.0 45 46
+ 0.51974 1 2 cbr 210 ------- 3 1.0 2.0 94 95
- 0.51974 1 2 cbr 210 ------- 3 1.0 2.0 94 95
r 0.519828 1 2 cbr 210 ------- 3 1.0 2.0 46 47
+ 0.51995 1 2 cbr 210 ------- 3 1.0 2.0 95 96
- 0.51995 1 2 cbr 210 ------- 3 1.0 2.0 95 96
r 0.520038 1 2 cbr 210 ------- 3 1.0 2.0 47 48
r 0.52007 1 2 tcp 40 ------- 1 0.0 3.0 0 1
+ 0.52007 2 3 tcp 40 ------- 1 0.0 3.0 0 1
- 0.52007 2 3 tcp 40 ------- 1 0.0 3.0 0 1
+ 0.52016 1 2 cbr 210 ------- 3 1.0 2.0 96 97
- 0.52016 1 2 cbr 210 ------- 3 1.0 2.0 96 97
r 0.520248 1 2 cbr 210 ------- 3 1.0 2.0 48 49
+ 0.52037 1 2 cbr 210 ------- 3 1.0 2.0 97 98
- 0.52037 1 2 cbr 210 ------- 3 1.0 2.0 97 98
r 0.520458 1 2 cbr 210 ------- 3 1.0 2.0 49 50
+ 0.52058 1 2 cbr 210 ------- 3 1.0 2.0 98 99
- 0.52058 1 2 cbr 210 ------- 3 1.0 2.0 98 99
r 0.520668 1 2 cbr 210 ------- 3 1.0 2.0 50 51
+ 0.52079 1 2 cbr 210 ------- 3 1.0 2.0 99 100
- 0.52079 1 2 cbr 210 ------- 3 1.0 2.0 99 100
r 0.520878 1 2 cbr 210 ------- 3 1.0 2.0 51 52
+ 0.521 1 2 cbr 210 ------- 3 1.0 2.0 100 101
- 0.521 1 2 cbr 210 ------- 3 1.0 2.0 100 101
r 0.521088 1 2 cbr 210 ------- 3 1.0 2.0 52 53
+ 0.52121 1 2 cbr 210 ------- 3 1.0 2.0 101 102
- 0.52121 1 2 cbr 210 ------- 3 1.0 2.0 101 102
r 0.521298 1 2 cbr 210 ------- 3 1.0 2.0 53 54
+ 0.52142 1 2 cbr 210 ------- 3 1.0 2.0 102 103
- 0.52142 1 2 cbr 210 ------- 3 1.0 2.0 102 103
r 0.521508 1 2 cbr 210 ------- 3 1.0 2.0 54 55
+ 0.52163 1 2 cbr 210 ------- 3 1.0 2.0 103 104
- 0.52163 1 2 cbr 210 ------- 3 1.0 2.0 103 104
r 0.521718 1 2 cbr 210 ------- 3 1.0 2.0 55 56
+ 0.52184 1 2 cbr 210 ------- 3 1.0 2.0 104 105
- 0.52184 1 2 cbr 210 ------- 3 1.0 2.0 104 105
r 0.521928 1 2 cbr 210 ------- 3 1.0 2.0 56 57
+ 0.52205 1 2 cbr 210 ------- 3 1.0 2.0 105 106
- 0.52205 1 2 cbr 210 ------- 3 1.0 2.0 105 106
r 0.522138 1 2 cbr 210 ------- 3 1.0 2.0 57 58
+ 0.52226 1 2 cbr 210 ------- 3 1.0 2.0 106 107
- 0.52226 1 2 cbr 210 ------- 3 1.0 2.0 106 107
r 0.522348 1 2 cbr 210 ------- 3 1.0 2.0 58 59
+ 0.52247 1 2 cbr 210 ------- 3 1.0 2.0 107 108
- 0.52247 1 2 cbr 210 ------- 3 1.0 2.0 107 108
r 0.522558 1 2 cbr 210 ------- 3 1.0 2.0 59 60
+ 0.52268 1 2 cbr 210 ------- 3 1.0 2.0 108 109
- 0.52268 1 2 cbr 210 ------- 3 1.0 2.0 108 109
r 0.522768 1 2 cbr 210 ------- 3 1.0 2.0 60 61
+ 0.52289 1 2 cbr 210 ------- 3 1.0 2.0 109 110
- 0.52289 1 2 cbr 210 ------- 3 1.0 2.0 109 110
r 0.522978 1 2 cbr 210 ------- 3 1.0 2.0 61 62
+ 0.5231 1 2 cbr 210 ------- 3 1.0 2.0 110 111
- 0.5231 1 2 cbr 210 ------- 3 1.0 2.0 110 111
r 0.523188 1 2 cbr 210 ------- 3 1.0 2.0 62 63
+ 0.52331 1 2 cbr 210 ------- 3 1.0 2.0 111 112
- 0.52331 1 2 cbr 210 ------- 3 1.0 2.0 111 112
r 0.523398 1 2 cbr 210 ------- 3 1.0 2.0 63 64
+ 0.52352 1 2 cbr 210 ------- 3 1.0 2.0 112 113
- 0.52352 1 2 cbr 210 ------- 3 1.0 2.0 112 113
r 0.523608 1 2 cbr 210 ------- 3 1.0 2.0 64 65
+ 0.52373 1 2 cbr 210 ------- 3 1.0 2.0 113 114
- 0.52373 1 2 cbr 210 ------- 3 1.0 2.0 113 114
r 0.523818 1 2 cbr 210 ------- 3 1.0 2.0 65 66
+ 0.52394 1 2 cbr 210 ------- 3 1.0 2.0 114 115
- 0.52394 1 2 cbr 210 ------- 3 1.0 2.0 114 115
r 0.524028 1 2 cbr 210 ------- 3 1.0 2.0 66 67
+ 0.52415 1 2 cbr 210 ------- 3 1.0 2.0 115 116
- 0.52415 1 2 cbr 210 ------- 3 1.0 2.0 115 116
r 0.524238 1 2 cbr 210 ------- 3 1.0 2.0 67 68
+ 0.52436 1 2 cbr 210 ------- 3 1.0 2.0 116 117
- 0.52436 1 2 cbr 210 ------- 3 1.0 2.0 116 117
r 0.524448 1 2 cbr 210 ------- 3 1.0 2.0 68 69
+ 0.52457 1 2 cbr 210 ------- 3 1.0 2.0 117 118
- 0.52457 1 2 cbr 210 ------- 3 1.0 2.0 117 118
r 0.524658 1 2 cbr 210 ------- 3 1.0 2.0 69 70
+ 0.52478 1 2 cbr 210 ------- 3 1.0 2.0 118 119
- 0.52478 1 2 cbr 210 ------- 3 1.0 2.0 118 119
r 0.524868 1 2 cbr 210 ------- 3 1.0 2.0 70 71
+ 0.52499 1 2 cbr 210 ------- 3 1.0 2.0 119 120
- 0.52499 1 2 cbr 210 ------- 3 1.0 2.0 119 120
r 0.525078 1 2 cbr 210 ------- 3 1.0 2.0 71 72
+ 0.5252 1 2 cbr 210 ------- 3 1.0 2.0 120 121
- 0.5252 1 2 cbr 210 ------- 3 1.0 2.0 120 121
r 0.525288 1 2 cbr 210 ------- 3 1.0 2.0 72 73
+ 0.52541 1 2 cbr 210 ------- 3 1.0 2.0 121 122
- 0.52541 1 2 cbr 210 ------- 3 1.0 2.0 121 122
r 0.525498 1 2 cbr 210 ------- 3 1.0 2.0 73 74
+ 0.52562 1 2 cbr 210 ------- 3 1.0 2.0 122 123
- 0.52562 1 2 cbr 210 ------- 3 1.0 2.0 122 123
r 0.525708 1 2 cbr 210 ------- 3 1.0 2.0 74 75
+ 0.52583 1 2 cbr 210 ------- 3 1.0 2.0 123 124
- 0.52583 1 2 cbr 210 ------- 3 1.0 2.0 123 124
r 0.525918 1 2 cbr 210 ------- 3 1.0 2.0 75 76
+ 0.52604 1 2 cbr 210 ------- 3 1.0 2.0 124 125
- 0.52604 1 2 cbr 210 ------- 3 1.0 2.0 124 125
r 0.526128 1 2 cbr 210 ------- 3 1.0 2.0 76 77
+ 0.52625 1 2 cbr 210 ------- 3 1.0 2.0 125 126
- 0.52625 1 2 cbr 210 ------- 3 1.0 2.0 125 126
r 0.526338 1 2 cbr 210 ------- 3 1.0 2.0 77 78
+ 0.52646 1 2 cbr 210 ------- 3 1.0 2.0 126 127
- 0.52646 1 2 cbr 210 ------- 3 1.0 2.0 126 127
r 0.526548 1 2 cbr 210 ------- 3 1.0 2.0 78 79
+ 0.52667 1 2 cbr 210 ------- 3 1.0 2.0 127 128
- 0.52667 1 2 cbr 210 ------- 3 1.0 2.0 127 128
r 0.526758 1 2 cbr 210 ------- 3 1.0 2.0 79 80
+ 0.52688 1 2 cbr 210 ------- 3 1.0 2.0 128 129
- 0.52688 1 2 cbr 210 ------- 3 1.0 2.0 128 129
r 0.526968 1 2 cbr 210 ------- 3 1.0 2.0 80 81
+ 0.52709 1 2 cbr 210 ------- 3 1.0 2.0 129 130
- 0.52709 1 2 cbr 210 ------- 3 1.0 2.0 129 130
r 0.527178 1 2 cbr 210 ------- 3 1.0 2.0 81 82
+ 0.5273 1 2 cbr 210 ------- 3 1.0 2.0 130 131
- 0.5273 1 2 cbr 210 ------- 3 1.0 2.0 130 131
r 0.527388 1 2 cbr 210 ------- 3 1.0 2.0 82 83
+ 0.52751 1 2 cbr 210 ------- 3 1.0 2.0 131 132
- 0.52751 1 2 cbr 210 ------- 3 1.0 2.0 131 132
r 0.527598 1 2 cbr 210 ------- 3 1.0 2.0 83 84
+ 0.52772 1 2 cbr 210 ------- 3 1.0 2.0 132 133
- 0.52772 1 2 cbr 210 ------- 3 1.0 2.0 132 133
r 0.527808 1 2 cbr 210 ------- 3 1.0 2.0 84 85
+ 0.52793 1 2 cbr 210 ------- 3 1.0 2.0 133 134
- 0.52793 1 2 cbr 210 ------- 3 1.0 2.0 133 134
r 0.528018 1 2 cbr 210 ------- 3 1.0 2.0 85 86
+ 0.52814 1 2 cbr 210 ------- 3 1.0 2.0 134 135
- 0.52814 1 2 cbr 210 ------- 3 1.0 2.0 134 135
r 0.528228 1 2 cbr 210 ------- 3 1.0 2.0 86 87
+ 0.52835 1 2 cbr 210 ------- 3 1.0 2.0 135 136
- 0.52835 1 2 cbr 210 ------- 3 1.0 2.0 135 136
r 0.528438 1 2 cbr 210 ------- 3 1.0 2.0 87 88
+ 0.52856 1 2 cbr 210 ------- 3 1.0 2.0 136 137
- 0.52856 1 2 cbr 210 ------- 3 1.0 2.0 136 137
r 0.528648 1 2 cbr 210 ------- 3 1.0 2.0 88 89
+ 0.52877 1 2 cbr 210 ------- 3 1.0 2.0 137 138
- 0.52877 1 2 cbr 210 ------- 3 1.0 2.0 137 138
r 0.528858 1 2 cbr 210 ------- 3 1.0 2.0 89 90
+ 0.52898 1 2 cbr 210 ------- 3 1.0 2.0 138 139
- 0.52898 1 2 cbr 210 ------- 3 1.0 2.0 138 139
r 0.529068 1 2 cbr 210 ------- 3 1.0 2.0 90 91
+ 0.52919 1 2 cbr 210 ------- 3 1.0 2.0 139 140
- 0.52919 1 2 cbr 210 ------- 3 1.0 2.0 139 140
r 0.529278 1 2 cbr 210 ------- 3 1.0 2.0 91 92
+ 0.5294 1 2 cbr 210 ------- 3 1.0 2.0 140 141
- 0.5294 1 2 cbr 210 ------- 3 1.0 2.0 140 141
r 0.529488 1 2 cbr 210 ------- 3 1.0 2.0 92 93
+ 0.52961 1 2 cbr 210 ------- 3 1.0 2.0 141 142
- 0.52961 1 2 cbr 210 ------- 3 1.0 2.0 141 142
r 0.529698 1 2 cbr 210 ------- 3 1.0 2.0 93 94
+ 0.52982 1 2 cbr 210 ------- 3 1.0 2.0 142 143
- 0.52982 1 2 cbr 210 ------- 3 1.0 2.0 142 143
r 0.529908 1 2 cbr 210 ------- 3 1.0 2.0 94 95
+ 0.53003 1 2 cbr 210 ------- 3 1.0 2.0 143 144
- 0.53003 1 2 cbr 210 ------- 3 1.0 2.0 143 144
r 0.530102 2 3 tcp 40 ------- 1 0.0 3.0 0 1
+ 0.530102 3 2 ack 40 ------- 1 3.0 0.0 0 145
- 0.530102 3 2 ack 40 ------- 1 3.0 0.0 0 145
r 0.530118 1 2 cbr 210 ------- 3 1.0 2.0 95 96
+ 0.53024 1 2 cbr 210 ------- 3 1.0 2.0 144 146
- 0.53024 1 2 cbr 210 ------- 3 1.0 2.0 144 146
r 0.530328 1 2 cbr 210 ------- 3 1.0 2.0 96 97
+ 0.53045 1 2 cbr 210 ------- 3 1.0 2.0 145 147
- 0.53045 1 2 cbr 210 ------- 3 1.0 2.0 145 147
r 0.530538 1 2 cbr 210 ------- 3 1.0 2.0 97 98
+ 0.53066 1 2 cbr 210 ------- 3 1.0 2.0 146 148
- 0.53066 1 2 cbr 210 ------- 3 1.0 2.0 146 148
r 0.530748 1 2 cbr 210 ------- 3 1.0 2.0 98 99
+ 0.53087 1 2 cbr 210 ------- 3 1.0 2.0 147 149
- 0.53087 1 2 cbr 210 ------- 3 1.0 2.0 147 149
r 0.530958 1 2 cbr 210 ------- 3 1.0 2.0 99 100
+ 0.53108 1 2 cbr 210 ------- 3 1.0 2.0 148 150
- 0.53108 1 2 cbr 210 ------- 3 1.0 2.0 148 150
r 0.531168 1 2 cbr 210 ------- 3 1.0 2.0 100 101
+ 0.53129 1 2 cbr 210 ------- 3 1.0 2.0 149 151
- 0.53129 1 2 cbr 210 ------- 3 1.0 2.0 149 151
r 0.531378 1 2 cbr 210 ------- 3 1.0 2.0 101 102
+ 0.5315 1 2 cbr 210 ------- 3 1.0 2.0 150 152
- 0.5315 1 2 cbr 210 ------- 3 1.0 2.0 150 152
r 0.531588 1 2 cbr 210 ------- 3 1.0 2.0 102 103
+ 0.53171 1 2 cbr 210 ------- 3 1.0 2.0 151 153
- 0.53171 1 2 cbr 210 ------- 3 1.0 2.0 151 153
r 0.531798 1 2 cbr 210 ------- 3 1.0 2.0 103 104
+ 0.53192 1 2 cbr 210 ------- 3 1.0 2.0 152 154
- 0.53192 1 2 cbr 210 ------- 3 1.0 2.0 152 154
r 0.532008 1 2 cbr 210 ------- 3 1.0 2.0 104 105
+ 0.53213 1 2 cbr 210 ------- 3 1.0 2.0 153 155
- 0.53213 1 2 cbr 210 ------- 3 1.0 2.0 153 155
r 0.532218 1 2 cbr 210 ------- 3 1.0 2.0 105 106
+ 0.53234 1 2 cbr 210 ------- 3 1.0 2.0 154 156
- 0.53234 1 2 cbr 210 ------- 3 1.0 2.0 154 156
r 0.532428 1 2 cbr 210 ------- 3 1.0 2.0 106 107
+ 0.53255 1 2 cbr 210 ------- 3 1.0 2.0 155 157
- 0.53255 1 2 cbr 210 ------- 3 1.0 2.0 155 157
r 0.532638 1 2 cbr 210 ------- 3 1.0 2.0 107 108
+ 0.53276 1 2 cbr 210 ------- 3 1.0 2.0 156 158
- 0.53276 1 2 cbr 210 ------- 3 1.0 2.0 156 158
r 0.532848 1 2 cbr 210 ------- 3 1.0 2.0 108 109
+ 0.53297 1 2 cbr 210 ------- 3 1.0 2.0 157 159
- 0.53297 1 2 cbr 210 ------- 3 1.0 2.0 157 159
r 0.533058 1 2 cbr 210 ------- 3 1.0 2.0 109 110
+ 0.53318 1 2 cbr 210 ------- 3 1.0 2.0 158 160
- 0.53318 1 2 cbr 210 ------- 3 1.0 2.0 158 160
r 0.533268 1 2 cbr 210 ------- 3 1.0 2.0 110 111
+ 0.53339 1 2 cbr 210 ------- 3 1.0 2.0 159 161
- 0.53339 1 2 cbr 210 ------- 3 1.0 2.0 159 161
r 0.533478 1 2 cbr 210 ------- 3 1.0 2.0 111 112
+ 0.5336 1 2 cbr 210 ------- 3 1.0 2.0 160 162
- 0.5336 1 2 cbr 210 ------- 3 1.0 2.0 160 162
r 0.533688 1 2 cbr 210 ------- 3 1.0 2.0 112 113
+ 0.53381 1 2 cbr 210 ------- 3 1.0 2.0 161 163
- 0.53381 1 2 cbr 210 ------- 3 1.0 2.0 161 163
r 0.533898 1 2 cbr 210 ------- 3 1.0 2.0 113 114
+ 0.53402 1 2 cbr 210 ------- 3 1.0 2.0 162 164
- 0.53402 1 2 cbr 210 ------- 3 1.0 2.0 162 164
r 0.534108 1 2 cbr 210 ------- 3 1.0 2.0 114 115
+ 0.53423 1 2 cbr 210 ------- 3 1.0 2.0 163 165
- 0.53423 1 2 cbr 210 ------- 3 1.0 2.0 163 165
r 0.534318 1 2 cbr 210 ------- 3 1.0 2.0 115 116
+ 0.53444 1 2 cbr 210 ------- 3 1.0 2.0 164 166
- 0.53444 1 2 cbr 210 ------- 3 1.0 2.0 164 166
r 0.534528 1 2 cbr 210 ------- 3 1.0 2.0 116 117
+ 0.53465 1 2 cbr 210 ------- 3 1.0 2.0 165 167
- 0.53465 1 2 cbr 210 ------- 3 1.0 2.0 165 167
r 0.534738 1 2 cbr 210 ------- 3 1.0 2.0 117 118
+ 0.53486 1 2 cbr 210 ------- 3 1.0 2.0 166 168
- 0.53486 1 2 cbr 210 ------- 3 1.0 2.0 166 168
r 0.534948 1 2 cbr 210 ------- 3 1.0 2.0 118 119
+ 0.53507 1 2 cbr 210 ------- 3 1.0 2.0 167 169
- 0.53507 1 2 cbr 210 ------- 3 1.0 2.0 167 169
r 0.535158 1 2 cbr 210 ------- 3 1.0 2.0 119 120
+ 0.53528 1 2 cbr 210 ------- 3 1.0 2.0 168 170
- 0.53528 1 2 cbr 210 ------- 3 1.0 2.0 168 170
r 0.535368 1 2 cbr 210 ------- 3 1.0 2.0 120 121
+ 0.53549 1 2 cbr 210 ------- 3 1.0 2.0 169 171
- 0.53549 1 2 cbr 210 ------- 3 1.0 2.0 169 171
r 0.535578 1 2 cbr 210 ------- 3 1.0 2.0 121 122
+ 0.5357 1 2 cbr 210 ------- 3 1.0 2.0 170 172
- 0.5357 1 2 cbr 210 ------- 3 1.0 2.0 170 172
r 0.535788 1 2 cbr 210 ------- 3 1.0 2.0 122 123
+ 0.53591 1 2 cbr 210 ------- 3 1.0 2.0 171 173
- 0.53591 1 2 cbr 210 ------- 3 1.0 2.0 171 173
r 0.535998 1 2 cbr 210 ------- 3 1.0 2.0 123 124
+ 0.53612 1 2 cbr 210 ------- 3 1.0 2.0 172 174
- 0.53612 1 2 cbr 210 ------- 3 1.0 2.0 172 174
r 0.536208 1 2 cbr 210 ------- 3 1.0 2.0 124 125
+ 0.53633 1 2 cbr 210 ------- 3 1.0 2.0 173 175
- 0.53633 1 2 cbr 210 ------- 3 1.0 2.0 173 175
r 0.536418 1 2 cbr 210 ------- 3 1.0 2.0 125 126
+ 0.53654 1 2 cbr 210 ------- 3 1.0 2.0 174 176
- 0.53654 1 2 cbr 210 ------- 3 1.0 2.0 174 176
r 0.536628 1 2 cbr 210 ------- 3 1.0 2.0 126 127
+ 0.53675 1 2 cbr 210 ------- 3 1.0 2.0 175 177
- 0.53675 1 2 cbr 210 ------- 3 1.0 2.0 175 177
r 0.536838 1 2 cbr 210 ------- 3 1.0 2.0 127 128
+ 0.53696 1 2 cbr 210 ------- 3 1.0 2.0 176 178
- 0.53696 1 2 cbr 210 ------- 3 1.0 2.0 176 178
r 0.537048 1 2 cbr 210 ------- 3 1.0 2.0 128 129
+ 0.53717 1 2 cbr 210 ------- 3 1.0 2.0 177 179
- 0.53717 1 2 cbr 210 ------- 3 1.0 2.0 177 179
r 0.537258 1 2 cbr 210 ------- 3 1.0 2.0 129 130
+ 0.53738 1 2 cbr 210 ------- 3 1.0 2.0 178 180
- 0.53738 1 2 cbr 210 ------- 3 1.0 2.0 178 180
r 0.537468 1 2 cbr 210 ------- 3 1.0 2.0 130 131
+ 0.53759 1 2 cbr 210 ------- 3 1.0 2.0 179 181
- 0.53759 1 2 cbr 210 ------- 3 1.0 2.0 179 181
r 0.537678 1 2 cbr 210 ------- 3 1.0 2.0 131 132
+ 0.5378 1 2 cbr 210 ------- 3 1.0 2.0 180 182
- 0.5378 1 2 cbr 210 ------- 3 1.0 2.0 180 182
r 0.537888 1 2 cbr 210 ------- 3 1.0 2.0 132 133
+ 0.53801 1 2 cbr 210 ------- 3 1.0 2.0 181 183
- 0.53801 1 2 cbr 210 ------- 3 1.0 2.0 181 183
r 0.538098 1 2 cbr 210 ------- 3 1.0 2.0 133 134
+ 0.53822 1 2 cbr 210 ------- 3 1.0 2.0 182 184
- 0.53822 1 2 cbr 210 ------- 3 1.0 2.0 182 184
r 0.538308 1 2 cbr 210 ------- 3 1.0 2.0 134 135
+ 0.53843 1 2 cbr 210 ------- 3 1.0 2.0 183 185
- 0.53843 1 2 cbr 210 ------- 3 1.0 2.0 183 185
r 0.538518 1 2 cbr 210 ------- 3 1.0 2.0 135 136
+ 0.53864 1 2 cbr 210 ------- 3 1.0 2.0 184 186
- 0.53864 1 2 cbr 210 ------- 3 1.0 2.0 184 186
r 0.538728 1 2 cbr 210 ------- 3 1.0 2.0 136 137
+ 0.53885 1 2 cbr 210 ------- 3 1.0 2.0 185 187
- 0.53885 1 2 cbr 210 ------- 3 1.0 2.0 185 187
r 0.538938 1 2 cbr 210 ------- 3 1.0 2.0 137 138
+ 0.53906 1 2 cbr 210 ------- 3 1.0 2.0 186 188
- 0.53906 1 2 cbr 210 ------- 3 1.0 2.0 186 188
r 0.539148 1 2 cbr 210 ------- 3 1.0 2.0 138 139
+ 0.53927 1 2 cbr 210 ------- 3 1.0 2.0 187 189
- 0.53927 1 2 cbr 210 ------- 3 1.0 2.0 187 189
r 0.539358 1 2 cbr 210 ------- 3 1.0 2.0 139 140
+ 0.53948 1 2 cbr 210 ------- 3 1.0 2.0 188 190
- 0.53948 1 2 cbr 210 ------- 3 1.0 2.0 188 190
r 0.539568 1 2 cbr 210 ------- 3 1.0 2.0 140 141
+ 0.53969 1 2 cbr 210 ------- 3 1.0 2.0 189 191
- 0.53969 1 2 cbr 210 ------- 3 1.0 2.0 189 191
r 0.539778 1 2 cbr 210 ------- 3 1.0 2.0 141 142
+ 0.5399 1 2 cbr 210 ------- 3 1.0 2.0 190 192
- 0.5399 1 2 cbr 210 ------- 3 1.0 2.0 190 192
r 0.539988 1 2 cbr 210 ------- 3 1.0 2.0 142 143
+ 0.54011 1 2 cbr 210 ------- 3 1.0 2.0 191 193
- 0.54011 1 2 cbr 210 ------- 3 1.0 2.0 191 193
r 0.540134 3 2 ack 40 ------- 1 3.0 0.0 0 145
+ 0.540134 2 1 ack 40 ------- 1 3.0 0.0 0 145
- 0.540134 2 1 ack 40 ------- 1 3.0 0.0 0 145
r 0.540198 1 2 cbr 210 ------- 3 1.0 2.0 143 144
+ 0.54032 1 2 cbr 210 ------- 3 1.0 2.0 192 194
- 0.54032 1 2 cbr 210 ------- 3 1.0 2.0 192 194
r 0.540408 1 2 cbr 210 ------- 3 1.0 2.0 144 146
+ 0.54053 1 2 cbr 210 ------- 3 1.0 2.0 193 195
- 0.54053 1 2 cbr 210 ------- 3 1.0 2.0 193 195
r 0.540618 1 2 cbr 210 ------- 3 1.0 2.0 145 147
+ 0.54074 1 2 cbr 210 ------- 3 1.0 2.0 194 196
- 0.54074 1 2 cbr 210 ------- 3 1.0 2.0 194 196
r 0.540828 1 2 cbr 210 ------- 3 1.0 2.0 146 148
+ 0.54095 1 2 cbr 210 ------- 3 1.0 2.0 195 197
- 0.54095 1 2 cbr 210 ------- 3 1.0 2.0 195 197
r 0.541038 1 2 cbr 210 ------- 3 1.0 2.0 147 149
+ 0.54116 1 2 cbr 210 ------- 3 1.0 2.0 196 198
- 0.54116 1 2 cbr 210 ------- 3 1.0 2.0 196 198
r 0.541248 1 2 cbr 210 ------- 3 1.0 2.0 148 150
+ 0.54137 1 2 cbr 210 ------- 3 1.0 2.0 197 199
- 0.54137 1 2 cbr 210 ------- 3 1.0 2.0 197 199
r 0.541458 1 2 cbr 210 ------- 3 1.0 2.0 149 151
+ 0.54158 1 2 cbr 210 ------- 3 1.0 2.0 198 200
- 0.54158 1 2 cbr 210 ------- 3 1.0 2.0 198 200
r 0.541668 1 2 cbr 210 ------- 3 1.0 2.0 150 152
+ 0.54179 1 2 cbr 210 ------- 3 1.0 2.0 199 201
- 0.54179 1 2 cbr 210 ------- 3 1.0 2.0 199 201
r 0.541878 1 2 cbr 210 ------- 3 1.0 2.0 151 153
+ 0.542 1 2 cbr 210 ------- 3 1.0 2.0 200 202
- 0.542 1 2 cbr 210 ------- 3 1.0 2.0 200 202
r 0.542088 1 2 cbr 210 ------- 3 1.0 2.0 152 154
+ 0.54221 1 2 cbr 210 ------- 3 1.0 2.0 201 203
- 0.54221 1 2 cbr 210 ------- 3 1.0 2.0 201 203
r 0.542298 1 2 cbr 210 ------- 3 1.0 2.0 153 155
+ 0.54242 1 2 cbr 210 ------- 3 1.0 2.0 202 204
- 0.54242 1 2 cbr 210 ------- 3 1.0 2.0 202 204
r 0.542508 1 2 cbr 210 ------- 3 1.0 2.0 154 156
+ 0.54263 1 2 cbr 210 ------- 3 1.0 2.0 203 205
- 0.54263 1 2 cbr 210 ------- 3 1.0 2.0 203 205
r 0.542718 1 2 cbr 210 ------- 3 1.0 2.0 155 157
+ 0.54284 1 2 cbr 210 ------- 3 1.0 2.0 204 206
- 0.54284 1 2 cbr 210 ------- 3 1.0 2.0 204 206
r 0.542928 1 2 cbr 210 ------- 3 1.0 2.0 156 158
+ 0.54305 1 2 cbr 210 ------- 3 1.0 2.0 205 207
- 0.54305 1 2 cbr 210 ------- 3 1.0 2.0 205 207
r 0.543138 1 2 cbr 210 ------- 3 1.0 2.0 157 159
+ 0.54326 1 2 cbr 210 ------- 3 1.0 2.0 206 208
- 0.54326 1 2 cbr 210 ------- 3 1.0 2.0 206 208
r 0.543348 1 2 cbr 210 ------- 3 1.0 2.0 158 160
+ 0.54347 1 2 cbr 210 ------- 3 1.0 2.0 207 209
- 0.54347 1 2 cbr 210 ------- 3 1.0 2.0 207 209
r 0.543558 1 2 cbr 210 ------- 3 1.0 2.0 159 161
+ 0.54368 1 2 cbr 210 ------- 3 1.0 2.0 208 210
- 0.54368 1 2 cbr 210 ------- 3 1.0 2.0 208 210
r 0.543768 1 2 cbr 210 ------- 3 1.0 2.0 160 162
+ 0.54389 1 2 cbr 210 ------- 3 1.0 2.0 209 211
- 0.54389 1 2 cbr 210 ------- 3 1.0 2.0 209 211
r 0.543978 1 2 cbr 210 ------- 3 1.0 2.0 161 163
+ 0.5441 1 2 cbr 210 ------- 3 1.0 2.0 210 212
- 0.5441 1 2 cbr 210 ------- 3 1.0 2.0 210 212
r 0.544188 1 2 cbr 210 ------- 3 1.0 2.0 162 164
+ 0.54431 1 2 cbr 210 ------- 3 1.0 2.0 211 213
- 0.54431 1 2 cbr 210 ------- 3 1.0 2.0 211 213
r 0.544398 1 2 cbr 210 ------- 3 1.0 2.0 163 165
+ 0.54452 1 2 cbr 210 ------- 3 1.0 2.0 212 214
- 0.54452 1 2 cbr 210 ------- 3 1.0 2.0 212 214
r 0.544608 1 2 cbr 210 ------- 3 1.0 2.0 164 166
+ 0.54473 1 2 cbr 210 ------- 3 1.0 2.0 213 215
- 0.54473 1 2 cbr 210 ------- 3 1.0 2.0 213 215
r 0.544818 1 2 cbr 210 ------- 3 1.0 2.0 165 167
+ 0.54494 1 2 cbr 210 ------- 3 1.0 2.0 214 216
- 0.54494 1 2 cbr 210 ------- 3 1.0 2.0 214 216
r 0.545028 1 2 cbr 210 ------- 3 1.0 2.0 166 168
+ 0.54515 1 2 cbr 210 ------- 3 1.0 2.0 215 217
- 0.54515 1 2 cbr 210 ------- 3 1.0 2.0 215 217
r 0.545238 1 2 cbr 210 ------- 3 1.0 2.0 167 169
+ 0.54536 1 2 cbr 210 ------- 3 1.0 2.0 216 218
- 0.54536 1 2 cbr 210 ------- 3 1.0 2.0 216 218
r 0.545448 1 2 cbr 210 ------- 3 1.0 2.0 168 170
+ 0.54557 1 2 cbr 210 ------- 3 1.0 2.0 217 219
- 0.54557 1 2 cbr 210 ------- 3 1.0 2.0 217 219
r 0.545658 1 2 cbr 210 ------- 3 1.0 2.0 169 171
+ 0.54578 1 2 cbr 210 ------- 3 1.0 2.0 218 220
- 0.54578 1 2 cbr 210 ------- 3 1.0 2.0 218 220
r 0.545868 1 2 cbr 210 ------- 3 1.0 2.0 170 172
+ 0.54599 1 2 cbr 210 ------- 3 1.0 2.0 219 221
- 0.54599 1 2 cbr 210 ------- 3 1.0 2.0 219 221
r 0.546078 1 2 cbr 210 ------- 3 1.0 2.0 171 173
+ 0.5462 1 2 cbr 210 ------- 3 1.0 2.0 220 222
- 0.5462 1 2 cbr 210 ------- 3 1.0 2.0 220 222
r 0.546288 1 2 cbr 210 ------- 3 1.0 2.0 172 174
+ 0.54641 1 2 cbr 210 ------- 3 1.0 2.0 221 223
- 0.54641 1 2 cbr 210 ------- 3 1.0 2.0 221 223
r 0.546498 1 2 cbr 210 ------- 3 1.0 2.0 173 175
+ 0.54662 1 2 cbr 210 ------- 3 1.0 2.0 222 224
- 0.54662 1 2 cbr 210 ------- 3 1.0 2.0 222 224
r 0.546708 1 2 cbr 210 ------- 3 1.0 2.0 174 176
+ 0.54683 1 2 cbr 210 ------- 3 1.0 2.0 223 225
- 0.54683 1 2 cbr 210 ------- 3 1.0 2.0 223 225