+ 0.5 0 1 tcp 40 ------- 1 0.0 3.0 0 0
- 0.5 0 1 tcp 40 ------- 1 0.0 3.0 0 0
+ 0.5 4 1 tcp 40 ------- 2 4.0 5.0 0 1
- 0.5 4 1 tcp 40 ------- 2 4.0 5.0 0 1
r 0.510032 0 1 tcp 40 ------- 1 0.0 3.0 0 0
+ 0.510032 1 2 tcp 40 ------- 1 0.0 3.0 0 0
- 0.510032 1 2 tcp 40 ------- 1 0.0 3.0 0 0
r 0.510032 4 1 tcp 40 ------- 2 4.0 5.0 0 1
+ 0.510032 1 2 tcp 40 ------- 2 4.0 5.0 0 1
- 0.510352 1 2 tcp 40 ------- 2 4.0 5.0 0 1
r 0.520352 1 2 tcp 40 ------- 1 0.0 3.0 0 0
+ 0.520352 2 3 tcp 40 ------- 1 0.0 3.0 0 0
- 0.520352 2 3 tcp 40 ------- 1 0.0 3.0 0 0
r 0.520672 1 2 tcp 40 ------- 2 4.0 5.0 0 1
+ 0.520672 2 5 tcp 40 ------- 2 4.0 5.0 0 1
- 0.520672 2 5 tcp 40 ------- 2 4.0 5.0 0 1
r 0.530384 2 3 tcp 40 ------- 1 0.0 3.0 0 0
+ 0.530384 3 2 ack 40 ------- 1 3.0 0.0 0 2
- 0.530384 3 2 ack 40 ------- 1 3.0 0.0 0 2
r 0.530704 2 5 tcp 40 ------- 2 4.0 5.0 0 1
+ 0.530704 5 2 ack 40 ------- 2 5.0 4.0 0 3
- 0.530704 5 2 ack 40 ------- 2 5.0 4.0 0 3
r 0.540416 3 2 ack 40 ------- 1 3.0 0.0 0 2
+ 0.540416 2 1 ack 40 ------- 1 3.0 0.0 0 2
- 0.540416 2 1 ack 40 ------- 1 3.0 0.0 0 2
r 0.540736 5 2 ack 40 ------- 2 5.0 4.0 0 3
+ 0.540736 2 1 ack 40 ------- 2 5.0 4.0 0 3
- 0.540736 2 1 ack 40 ------- 2 5.0 4.0 0 3
r 0.550736 2 1 ack 40 ------- 1 3.0 0.0 0 2
+ 0.550736 1 0 ack 40 ------- 1 3.0 0.0 0 2
- 0.550736 1 0 ack 40 ------- 1 3.0 0.0 0 2
r 0.551056 2 1 ack 40 ------- 2 5.0 4.0 0 3
+ 0.551056 1 4 ack 40 ------- 2 5.0 4.0 0 3
- 0.551056 1 4 ack 40 ------- 2 5.0 4.0 0 3
r 0.560768 1 0 ack 40 ------- 1 3.0 0.0 0 2
+ 0.560768 0 1 tcp 1040 ------- 1 0.0 3.0 1 4
- 0.560768 0 1 tcp 1040 ------- 1 0.0 3.0 1 4
+ 0.560768 0 1 tcp 1040 ------- 1 0.0 3.0 2 5
r 0.561088 1 4 ack 40 ------- 2 5.0 4.0 0 3
+ 0.561088 4 1 tcp 1040 ------- 2 4.0 5.0 1 6
- 0.561088 4 1 tcp 1040 ------- 2 4.0 5.0 1 6
+ 0.561088 4 1 tcp 1040 ------- 2 4.0 5.0 2 7
- 0.5616 0 1 tcp 1040 ------- 1 0.0 3.0 2 5
- 0.56192 4 1 tcp 1040 ------- 2 4.0 5.0 2 7
r 0.5716 0 1 tcp 1040 ------- 1 0.0 3.0 1 4
+ 0.5716 1 2 tcp 1040 ------- 1 0.0 3.0 1 4
- 0.5716 1 2 tcp 1040 ------- 1 0.0 3.0 1 4
r 0.57192 4 1 tcp 1040 ------- 2 4.0 5.0 1 6
+ 0.57192 1 2 tcp 1040 ------- 2 4.0 5.0 1 6
r 0.572432 0 1 tcp 1040 ------- 1 0.0 3.0 2 5
+ 0.572432 1 2 tcp 1040 ------- 1 0.0 3.0 2 5
r 0.572752 4 1 tcp 1040 ------- 2 4.0 5.0 2 7
+ 0.572752 1 2 tcp 1040 ------- 2 4.0 5.0 2 7
- 0.57992 1 2 tcp 1040 ------- 2 4.0 5.0 1 6
- 0.58824 1 2 tcp 1040 ------- 1 0.0 3.0 2 5
r 0.58992 1 2 tcp 1040 ------- 1 0.0 3.0 1 4
+ 0.58992 2 3 tcp 1040 ------- 1 0.0 3.0 1 4
- 0.58992 2 3 tcp 1040 ------- 1 0.0 3.0 1 4
- 0.59656 1 2 tcp 1040 ------- 2 4.0 5.0 2 7
r 0.59824 1 2 tcp 1040 ------- 2 4.0 5.0 1 6
+ 0.59824 2 5 tcp 1040 ------- 2 4.0 5.0 1 6
- 0.59824 2 5 tcp 1040 ------- 2 4.0 5.0 1 6
r 0.600752 2 3 tcp 1040 ------- 1 0.0 3.0 1 4
+ 0.600752 3 2 ack 40 ------- 1 3.0 0.0 1 8
- 0.600752 3 2 ack 40 ------- 1 3.0 0.0 1 8
r 0.60656 1 2 tcp 1040 ------- 1 0.0 3.0 2 5
+ 0.60656 2 3 tcp 1040 ------- 1 0.0 3.0 2 5
- 0.60656 2 3 tcp 1040 ------- 1 0.0 3.0 2 5
r 0.609072 2 5 tcp 1040 ------- 2 4.0 5.0 1 6
+ 0.609072 5 2 ack 40 ------- 2 5.0 4.0 1 9
- 0.609072 5 2 ack 40 ------- 2 5.0 4.0 1 9
r 0.610784 3 2 ack 40 ------- 1 3.0 0.0 1 8
+ 0.610784 2 1 ack 40 ------- 1 3.0 0.0 1 8
- 0.610784 2 1 ack 40 ------- 1 3.0 0.0 1 8
r 0.61488 1 2 tcp 1040 ------- 2 4.0 5.0 2 7
+ 0.61488 2 5 tcp 1040 ------- 2 4.0 5.0 2 7
- 0.61488 2 5 tcp 1040 ------- 2 4.0 5.0 2 7
r 0.617392 2 3 tcp 1040 ------- 1 0.0 3.0 2 5
+ 0.617392 3 2 ack 40 ------- 1 3.0 0.0 2 10
- 0.617392 3 2 ack 40 ------- 1 3.0 0.0 2 10
r 0.619104 5 2 ack 40 ------- 2 5.0 4.0 1 9
+ 0.619104 2 1 ack 40 ------- 2 5.0 4.0 1 9
- 0.619104 2 1 ack 40 ------- 2 5.0 4.0 1 9
r 0.621104 2 1 ack 40 ------- 1 3.0 0.0 1 8
+ 0.621104 1 0 ack 40 ------- 1 3.0 0.0 1 8
- 0.621104 1 0 ack 40 ------- 1 3.0 0.0 1 8
r 0.625712 2 5 tcp 1040 ------- 2 4.0 5.0 2 7
+ 0.625712 5 2 ack 40 ------- 2 5.0 4.0 2 11
- 0.625712 5 2 ack 40 ------- 2 5.0 4.0 2 11
r 0.627424 3 2 ack 40 ------- 1 3.0 0.0 2 10
+ 0.627424 2 1 ack 40 ------- 1 3.0 0.0 2 10
- 0.627424 2 1 ack 40 ------- 1 3.0 0.0 2 10
r 0.629424 2 1 ack 40 ------- 2 5.0 4.0 1 9
+ 0.629424 1 4 ack 40 ------- 2 5.0 4.0 1 9
- 0.629424 1 4 ack 40 ------- 2 5.0 4.0 1 9
r 0.631136 1 0 ack 40 ------- 1 3.0 0.0 1 8
+ 0.631136 0 1 tcp 1040 ------- 1 0.0 3.0 3 12
- 0.631136 0 1 tcp 1040 ------- 1 0.0 3.0 3 12
+ 0.631136 0 1 tcp 1040 ------- 1 0.0 3.0 4 13
- 0.631968 0 1 tcp 1040 ------- 1 0.0 3.0 4 13
r 0.635744 5 2 ack 40 ------- 2 5.0 4.0 2 11
+ 0.635744 2 1 ack 40 ------- 2 5.0 4.0 2 11
- 0.635744 2 1 ack 40 ------- 2 5.0 4.0 2 11
r 0.637744 2 1 ack 40 ------- 1 3.0 0.0 2 10
+ 0.637744 1 0 ack 40 ------- 1 3.0 0.0 2 10
- 0.637744 1 0 ack 40 ------- 1 3.0 0.0 2 10
r 0.639456 1 4 ack 40 ------- 2 5.0 4.0 1 9
+ 0.639456 4 1 tcp 1040 ------- 2 4.0 5.0 3 14
- 0.639456 4 1 tcp 1040 ------- 2 4.0 5.0 3 14
+ 0.639456 4 1 tcp 1040 ------- 2 4.0 5.0 4 15
- 0.640288 4 1 tcp 1040 ------- 2 4.0 5.0 4 15
r 0.641968 0 1 tcp 1040 ------- 1 0.0 3.0 3 12
+ 0.641968 1 2 tcp 1040 ------- 1 0.0 3.0 3 12
- 0.641968 1 2 tcp 1040 ------- 1 0.0 3.0 3 12
r 0.6428 0 1 tcp 1040 ------- 1 0.0 3.0 4 13
+ 0.6428 1 2 tcp 1040 ------- 1 0.0 3.0 4 13
r 0.646064 2 1 ack 40 ------- 2 5.0 4.0 2 11
+ 0.646064 1 4 ack 40 ------- 2 5.0 4.0 2 11
- 0.646064 1 4 ack 40 ------- 2 5.0 4.0 2 11
r 0.647776 1 0 ack 40 ------- 1 3.0 0.0 2 10
+ 0.647776 0 1 tcp 1040 ------- 1 0.0 3.0 5 16
- 0.647776 0 1 tcp 1040 ------- 1 0.0 3.0 5 16
+ 0.647776 0 1 tcp 1040 ------- 1 0.0 3.0 6 17
- 0.648608 0 1 tcp 1040 ------- 1 0.0 3.0 6 17
r 0.650288 4 1 tcp 1040 ------- 2 4.0 5.0 3 14
+ 0.650288 1 2 tcp 1040 ------- 2 4.0 5.0 3 14
- 0.650288 1 2 tcp 1040 ------- 1 0.0 3.0 4 13
r 0.65112 4 1 tcp 1040 ------- 2 4.0 5.0 4 15
+ 0.65112 1 2 tcp 1040 ------- 2 4.0 5.0 4 15
r 0.656096 1 4 ack 40 ------- 2 5.0 4.0 2 11
+ 0.656096 4 1 tcp 1040 ------- 2 4.0 5.0 5 18
- 0.656096 4 1 tcp 1040 ------- 2 4.0 5.0 5 18
+ 0.656096 4 1 tcp 1040 ------- 2 4.0 5.0 6 19
- 0.656928 4 1 tcp 1040 ------- 2 4.0 5.0 6 19
r 0.658608 0 1 tcp 1040 ------- 1 0.0 3.0 5 16
+ 0.658608 1 2 tcp 1040 ------- 1 0.0 3.0 5 16
- 0.658608 1 2 tcp 1040 ------- 2 4.0 5.0 3 14
r 0.65944 0 1 tcp 1040 ------- 1 0.0 3.0 6 17
+ 0.65944 1 2 tcp 1040 ------- 1 0.0 3.0 6 17
r 0.660288 1 2 tcp 1040 ------- 1 0.0 3.0 3 12
+ 0.660288 2 3 tcp 1040 ------- 1 0.0 3.0 3 12
- 0.660288 2 3 tcp 1040 ------- 1 0.0 3.0 3 12
r 0.666928 4 1 tcp 1040 ------- 2 4.0 5.0 5 18
+ 0.666928 1 2 tcp 1040 ------- 2 4.0 5.0 5 18
- 0.666928 1 2 tcp 1040 ------- 2 4.0 5.0 4 15
r 0.66776 4 1 tcp 1040 ------- 2 4.0 5.0 6 19
+ 0.66776 1 2 tcp 1040 ------- 2 4.0 5.0 6 19
r 0.668608 1 2 tcp 1040 ------- 1 0.0 3.0 4 13
+ 0.668608 2 3 tcp 1040 ------- 1 0.0 3.0 4 13
- 0.668608 2 3 tcp 1040 ------- 1 0.0 3.0 4 13
r 0.67112 2 3 tcp 1040 ------- 1 0.0 3.0 3 12
+ 0.67112 3 2 ack 40 ------- 1 3.0 0.0 3 20
- 0.67112 3 2 ack 40 ------- 1 3.0 0.0 3 20
- 0.675248 1 2 tcp 1040 ------- 1 0.0 3.0 5 16
r 0.676928 1 2 tcp 1040 ------- 2 4.0 5.0 3 14
+ 0.676928 2 5 tcp 1040 ------- 2 4.0 5.0 3 14
- 0.676928 2 5 tcp 1040 ------- 2 4.0 5.0 3 14
r 0.67944 2 3 tcp 1040 ------- 1 0.0 3.0 4 13
+ 0.67944 3 2 ack 40 ------- 1 3.0 0.0 4 21
- 0.67944 3 2 ack 40 ------- 1 3.0 0.0 4 21
r 0.681152 3 2 ack 40 ------- 1 3.0 0.0 3 20
+ 0.681152 2 1 ack 40 ------- 1 3.0 0.0 3 20
- 0.681152 2 1 ack 40 ------- 1 3.0 0.0 3 20
- 0.683568 1 2 tcp 1040 ------- 1 0.0 3.0 6 17
r 0.685248 1 2 tcp 1040 ------- 2 4.0 5.0 4 15
+ 0.685248 2 5 tcp 1040 ------- 2 4.0 5.0 4 15
- 0.685248 2 5 tcp 1040 ------- 2 4.0 5.0 4 15
r 0.68776 2 5 tcp 1040 ------- 2 4.0 5.0 3 14
+ 0.68776 5 2 ack 40 ------- 2 5.0 4.0 3 22
- 0.68776 5 2 ack 40 ------- 2 5.0 4.0 3 22
r 0.689472 3 2 ack 40 ------- 1 3.0 0.0 4 21
+ 0.689472 2 1 ack 40 ------- 1 3.0 0.0 4 21
- 0.689472 2 1 ack 40 ------- 1 3.0 0.0 4 21
r 0.691472 2 1 ack 40 ------- 1 3.0 0.0 3 20
+ 0.691472 1 0 ack 40 ------- 1 3.0 0.0 3 20
- 0.691472 1 0 ack 40 ------- 1 3.0 0.0 3 20
- 0.691888 1 2 tcp 1040 ------- 2 4.0 5.0 5 18
r 0.693568 1 2 tcp 1040 ------- 1 0.0 3.0 5 16
+ 0.693568 2 3 tcp 1040 ------- 1 0.0 3.0 5 16
- 0.693568 2 3 tcp 1040 ------- 1 0.0 3.0 5 16
r 0.69608 2 5 tcp 1040 ------- 2 4.0 5.0 4 15
+ 0.69608 5 2 ack 40 ------- 2 5.0 4.0 4 23
- 0.69608 5 2 ack 40 ------- 2 5.0 4.0 4 23
r 0.697792 5 2 ack 40 ------- 2 5.0 4.0 3 22
+ 0.697792 2 1 ack 40 ------- 2 5.0 4.0 3 22
- 0.697792 2 1 ack 40 ------- 2 5.0 4.0 3 22
r 0.699792 2 1 ack 40 ------- 1 3.0 0.0 4 21
+ 0.699792 1 0 ack 40 ------- 1 3.0 0.0 4 21
- 0.699792 1 0 ack 40 ------- 1 3.0 0.0 4 21
- 0.700208 1 2 tcp 1040 ------- 2 4.0 5.0 6 19
r 0.701504 1 0 ack 40 ------- 1 3.0 0.0 3 20
+ 0.701504 0 1 tcp 1040 ------- 1 0.0 3.0 7 24
- 0.701504 0 1 tcp 1040 ------- 1 0.0 3.0 7 24
+ 0.701504 0 1 tcp 1040 ------- 1 0.0 3.0 8 25
r 0.701888 1 2 tcp 1040 ------- 1 0.0 3.0 6 17
+ 0.701888 2 3 tcp 1040 ------- 1 0.0 3.0 6 17
- 0.701888 2 3 tcp 1040 ------- 1 0.0 3.0 6 17
- 0.702336 0 1 tcp 1040 ------- 1 0.0 3.0 8 25
r 0.7044 2 3 tcp 1040 ------- 1 0.0 3.0 5 16
+ 0.7044 3 2 ack 40 ------- 1 3.0 0.0 5 26
- 0.7044 3 2 ack 40 ------- 1 3.0 0.0 5 26
r 0.706112 5 2 ack 40 ------- 2 5.0 4.0 4 23
+ 0.706112 2 1 ack 40 ------- 2 5.0 4.0 4 23
- 0.706112 2 1 ack 40 ------- 2 5.0 4.0 4 23
r 0.708112 2 1 ack 40 ------- 2 5.0 4.0 3 22
+ 0.708112 1 4 ack 40 ------- 2 5.0 4.0 3 22
- 0.708112 1 4 ack 40 ------- 2 5.0 4.0 3 22
r 0.709824 1 0 ack 40 ------- 1 3.0 0.0 4 21
+ 0.709824 0 1 tcp 1040 ------- 1 0.0 3.0 9 27
- 0.709824 0 1 tcp 1040 ------- 1 0.0 3.0 9 27
+ 0.709824 0 1 tcp 1040 ------- 1 0.0 3.0 10 28
r 0.710208 1 2 tcp 1040 ------- 2 4.0 5.0 5 18
+ 0.710208 2 5 tcp 1040 ------- 2 4.0 5.0 5 18
- 0.710208 2 5 tcp 1040 ------- 2 4.0 5.0 5 18
- 0.710656 0 1 tcp 1040 ------- 1 0.0 3.0 10 28
r 0.712336 0 1 tcp 1040 ------- 1 0.0 3.0 7 24
+ 0.712336 1 2 tcp 1040 ------- 1 0.0 3.0 7 24
- 0.712336 1 2 tcp 1040 ------- 1 0.0 3.0 7 24
r 0.71272 2 3 tcp 1040 ------- 1 0.0 3.0 6 17
+ 0.71272 3 2 ack 40 ------- 1 3.0 0.0 6 29
- 0.71272 3 2 ack 40 ------- 1 3.0 0.0 6 29
r 0.713168 0 1 tcp 1040 ------- 1 0.0 3.0 8 25
+ 0.713168 1 2 tcp 1040 ------- 1 0.0 3.0 8 25
r 0.714432 3 2 ack 40 ------- 1 3.0 0.0 5 26
+ 0.714432 2 1 ack 40 ------- 1 3.0 0.0 5 26
- 0.714432 2 1 ack 40 ------- 1 3.0 0.0 5 26
r 0.716432 2 1 ack 40 ------- 2 5.0 4.0 4 23
+ 0.716432 1 4 ack 40 ------- 2 5.0 4.0 4 23
- 0.716432 1 4 ack 40 ------- 2 5.0 4.0 4 23
r 0.718144 1 4 ack 40 ------- 2 5.0 4.0 3 22
+ 0.718144 4 1 tcp 1040 ------- 2 4.0 5.0 7 30
- 0.718144 4 1 tcp 1040 ------- 2 4.0 5.0 7 30
+ 0.718144 4 1 tcp 1040 ------- 2 4.0 5.0 8 31
r 0.718528 1 2 tcp 1040 ------- 2 4.0 5.0 6 19
+ 0.718528 2 5 tcp 1040 ------- 2 4.0 5.0 6 19
- 0.718528 2 5 tcp 1040 ------- 2 4.0 5.0 6 19
- 0.718976 4 1 tcp 1040 ------- 2 4.0 5.0 8 31
r 0.720656 0 1 tcp 1040 ------- 1 0.0 3.0 9 27
+ 0.720656 1 2 tcp 1040 ------- 1 0.0 3.0 9 27
- 0.720656 1 2 tcp 1040 ------- 1 0.0 3.0 8 25
r 0.72104 2 5 tcp 1040 ------- 2 4.0 5.0 5 18
+ 0.72104 5 2 ack 40 ------- 2 5.0 4.0 5 32
- 0.72104 5 2 ack 40 ------- 2 5.0 4.0 5 32
r 0.721488 0 1 tcp 1040 ------- 1 0.0 3.0 10 28
+ 0.721488 1 2 tcp 1040 ------- 1 0.0 3.0 10 28
r 0.722752 3 2 ack 40 ------- 1 3.0 0.0 6 29
+ 0.722752 2 1 ack 40 ------- 1 3.0 0.0 6 29
- 0.722752 2 1 ack 40 ------- 1 3.0 0.0 6 29
r 0.724752 2 1 ack 40 ------- 1 3.0 0.0 5 26
+ 0.724752 1 0 ack 40 ------- 1 3.0 0.0 5 26
- 0.724752 1 0 ack 40 ------- 1 3.0 0.0 5 26
r 0.726464 1 4 ack 40 ------- 2 5.0 4.0 4 23
+ 0.726464 4 1 tcp 1040 ------- 2 4.0 5.0 9 33
- 0.726464 4 1 tcp 1040 ------- 2 4.0 5.0 9 33
+ 0.726464 4 1 tcp 1040 ------- 2 4.0 5.0 10 34
- 0.727296 4 1 tcp 1040 ------- 2 4.0 5.0 10 34
r 0.728976 4 1 tcp 1040 ------- 2 4.0 5.0 7 30
+ 0.728976 1 2 tcp 1040 ------- 2 4.0 5.0 7 30
- 0.728976 1 2 tcp 1040 ------- 1 0.0 3.0 9 27
r 0.72936 2 5 tcp 1040 ------- 2 4.0 5.0 6 19
+ 0.72936 5 2 ack 40 ------- 2 5.0 4.0 6 35
- 0.72936 5 2 ack 40 ------- 2 5.0 4.0 6 35
r 0.729808 4 1 tcp 1040 ------- 2 4.0 5.0 8 31
+ 0.729808 1 2 tcp 1040 ------- 2 4.0 5.0 8 31
r 0.730656 1 2 tcp 1040 ------- 1 0.0 3.0 7 24
+ 0.730656 2 3 tcp 1040 ------- 1 0.0 3.0 7 24
- 0.730656 2 3 tcp 1040 ------- 1 0.0 3.0 7 24
r 0.731072 5 2 ack 40 ------- 2 5.0 4.0 5 32
+ 0.731072 2 1 ack 40 ------- 2 5.0 4.0 5 32
- 0.731072 2 1 ack 40 ------- 2 5.0 4.0 5 32
r 0.733072 2 1 ack 40 ------- 1 3.0 0.0 6 29
+ 0.733072 1 0 ack 40 ------- 1 3.0 0.0 6 29
- 0.733072 1 0 ack 40 ------- 1 3.0 0.0 6 29
r 0.734784 1 0 ack 40 ------- 1 3.0 0.0 5 26
+ 0.734784 0 1 tcp 1040 ------- 1 0.0 3.0 11 36
- 0.734784 0 1 tcp 1040 ------- 1 0.0 3.0 11 36
+ 0.734784 0 1 tcp 1040 ------- 1 0.0 3.0 12 37
- 0.735616 0 1 tcp 1040 ------- 1 0.0 3.0 12 37
r 0.737296 4 1 tcp 1040 ------- 2 4.0 5.0 9 33
+ 0.737296 1 2 tcp 1040 ------- 2 4.0 5.0 9 33
- 0.737296 1 2 tcp 1040 ------- 1 0.0 3.0 10 28
r 0.738128 4 1 tcp 1040 ------- 2 4.0 5.0 10 34
+ 0.738128 1 2 tcp 1040 ------- 2 4.0 5.0 10 34
r 0.738976 1 2 tcp 1040 ------- 1 0.0 3.0 8 25
+ 0.738976 2 3 tcp 1040 ------- 1 0.0 3.0 8 25
- 0.738976 2 3 tcp 1040 ------- 1 0.0 3.0 8 25
r 0.739392 5 2 ack 40 ------- 2 5.0 4.0 6 35
+ 0.739392 2 1 ack 40 ------- 2 5.0 4.0 6 35
- 0.739392 2 1 ack 40 ------- 2 5.0 4.0 6 35
r 0.741392 2 1 ack 40 ------- 2 5.0 4.0 5 32
+ 0.741392 1 4 ack 40 ------- 2 5.0 4.0 5 32
- 0.741392 1 4 ack 40 ------- 2 5.0 4.0 5 32
r 0.741488 2 3 tcp 1040 ------- 1 0.0 3.0 7 24
+ 0.741488 3 2 ack 40 ------- 1 3.0 0.0 7 38
- 0.741488 3 2 ack 40 ------- 1 3.0 0.0 7 38
r 0.743104 1 0 ack 40 ------- 1 3.0 0.0 6 29
+ 0.743104 0 1 tcp 1040 ------- 1 0.0 3.0 13 39
- 0.743104 0 1 tcp 1040 ------- 1 0.0 3.0 13 39
+ 0.743104 0 1 tcp 1040 ------- 1 0.0 3.0 14 40
- 0.743936 0 1 tcp 1040 ------- 1 0.0 3.0 14 40
r 0.745616 0 1 tcp 1040 ------- 1 0.0 3.0 11 36
+ 0.745616 1 2 tcp 1040 ------- 1 0.0 3.0 11 36
- 0.745616 1 2 tcp 1040 ------- 2 4.0 5.0 7 30
r 0.746448 0 1 tcp 1040 ------- 1 0.0 3.0 12 37
+ 0.746448 1 2 tcp 1040 ------- 1 0.0 3.0 12 37
r 0.747296 1 2 tcp 1040 ------- 1 0.0 3.0 9 27
+ 0.747296 2 3 tcp 1040 ------- 1 0.0 3.0 9 27
- 0.747296 2 3 tcp 1040 ------- 1 0.0 3.0 9 27
r 0.749712 2 1 ack 40 ------- 2 5.0 4.0 6 35
+ 0.749712 1 4 ack 40 ------- 2 5.0 4.0 6 35
- 0.749712 1 4 ack 40 ------- 2 5.0 4.0 6 35
r 0.749808 2 3 tcp 1040 ------- 1 0.0 3.0 8 25
+ 0.749808 3 2 ack 40 ------- 1 3.0 0.0 8 41
- 0.749808 3 2 ack 40 ------- 1 3.0 0.0 8 41
r 0.751424 1 4 ack 40 ------- 2 5.0 4.0 5 32
+ 0.751424 4 1 tcp 1040 ------- 2 4.0 5.0 11 42
- 0.751424 4 1 tcp 1040 ------- 2 4.0 5.0 11 42
+ 0.751424 4 1 tcp 1040 ------- 2 4.0 5.0 12 43
r 0.75152 3 2 ack 40 ------- 1 3.0 0.0 7 38
+ 0.75152 2 1 ack 40 ------- 1 3.0 0.0 7 38
- 0.75152 2 1 ack 40 ------- 1 3.0 0.0 7 38
- 0.752256 4 1 tcp 1040 ------- 2 4.0 5.0 12 43
r 0.753936 0 1 tcp 1040 ------- 1 0.0 3.0 13 39
+ 0.753936 1 2 tcp 1040 ------- 1 0.0 3.0 13 39
- 0.753936 1 2 tcp 1040 ------- 2 4.0 5.0 8 31
r 0.754768 0 1 tcp 1040 ------- 1 0.0 3.0 14 40
+ 0.754768 1 2 tcp 1040 ------- 1 0.0 3.0 14 40
r 0.755616 1 2 tcp 1040 ------- 1 0.0 3.0 10 28
+ 0.755616 2 3 tcp 1040 ------- 1 0.0 3.0 10 28
- 0.755616 2 3 tcp 1040 ------- 1 0.0 3.0 10 28
r 0.758128 2 3 tcp 1040 ------- 1 0.0 3.0 9 27
+ 0.758128 3 2 ack 40 ------- 1 3.0 0.0 9 44
- 0.758128 3 2 ack 40 ------- 1 3.0 0.0 9 44
r 0.759744 1 4 ack 40 ------- 2 5.0 4.0 6 35
+ 0.759744 4 1 tcp 1040 ------- 2 4.0 5.0 13 45
- 0.759744 4 1 tcp 1040 ------- 2 4.0 5.0 13 45
+ 0.759744 4 1 tcp 1040 ------- 2 4.0 5.0 14 46
r 0.75984 3 2 ack 40 ------- 1 3.0 0.0 8 41
+ 0.75984 2 1 ack 40 ------- 1 3.0 0.0 8 41
- 0.75984 2 1 ack 40 ------- 1 3.0 0.0 8 41
- 0.760576 4 1 tcp 1040 ------- 2 4.0 5.0 14 46
r 0.76184 2 1 ack 40 ------- 1 3.0 0.0 7 38
+ 0.76184 1 0 ack 40 ------- 1 3.0 0.0 7 38
- 0.76184 1 0 ack 40 ------- 1 3.0 0.0 7 38
r 0.762256 4 1 tcp 1040 ------- 2 4.0 5.0 11 42
+ 0.762256 1 2 tcp 1040 ------- 2 4.0 5.0 11 42
- 0.762256 1 2 tcp 1040 ------- 2 4.0 5.0 9 33
r 0.763088 4 1 tcp 1040 ------- 2 4.0 5.0 12 43
+ 0.763088 1 2 tcp 1040 ------- 2 4.0 5.0 12 43
r 0.763936 1 2 tcp 1040 ------- 2 4.0 5.0 7 30
+ 0.763936 2 5 tcp 1040 ------- 2 4.0 5.0 7 30
- 0.763936 2 5 tcp 1040 ------- 2 4.0 5.0 7 30
r 0.766448 2 3 tcp 1040 ------- 1 0.0 3.0 10 28
+ 0.766448 3 2 ack 40 ------- 1 3.0 0.0 10 47
- 0.766448 3 2 ack 40 ------- 1 3.0 0.0 10 47
r 0.76816 3 2 ack 40 ------- 1 3.0 0.0 9 44
+ 0.76816 2 1 ack 40 ------- 1 3.0 0.0 9 44
- 0.76816 2 1 ack 40 ------- 1 3.0 0.0 9 44
r 0.77016 2 1 ack 40 ------- 1 3.0 0.0 8 41
+ 0.77016 1 0 ack 40 ------- 1 3.0 0.0 8 41
- 0.77016 1 0 ack 40 ------- 1 3.0 0.0 8 41
r 0.770576 4 1 tcp 1040 ------- 2 4.0 5.0 13 45
+ 0.770576 1 2 tcp 1040 ------- 2 4.0 5.0 13 45
- 0.770576 1 2 tcp 1040 ------- 2 4.0 5.0 10 34
r 0.771408 4 1 tcp 1040 ------- 2 4.0 5.0 14 46
+ 0.771408 1 2 tcp 1040 ------- 2 4.0 5.0 14 46
r 0.771872 1 0 ack 40 ------- 1 3.0 0.0 7 38
+ 0.771872 0 1 tcp 1040 ------- 1 0.0 3.0 15 48
- 0.771872 0 1 tcp 1040 ------- 1 0.0 3.0 15 48
+ 0.771872 0 1 tcp 1040 ------- 1 0.0 3.0 16 49
r 0.772256 1 2 tcp 1040 ------- 2 4.0 5.0 8 31
+ 0.772256 2 5 tcp 1040 ------- 2 4.0 5.0 8 31
- 0.772256 2 5 tcp 1040 ------- 2 4.0 5.0 8 31
- 0.772704 0 1 tcp 1040 ------- 1 0.0 3.0 16 49
r 0.774768 2 5 tcp 1040 ------- 2 4.0 5.0 7 30
+ 0.774768 5 2 ack 40 ------- 2 5.0 4.0 7 50
- 0.774768 5 2 ack 40 ------- 2 5.0 4.0 7 50
r 0.77648 3 2 ack 40 ------- 1 3.0 0.0 10 47
+ 0.77648 2 1 ack 40 ------- 1 3.0 0.0 10 47
- 0.77648 2 1 ack 40 ------- 1 3.0 0.0 10 47
r 0.77848 2 1 ack 40 ------- 1 3.0 0.0 9 44
+ 0.77848 1 0 ack 40 ------- 1 3.0 0.0 9 44
- 0.77848 1 0 ack 40 ------- 1 3.0 0.0 9 44
- 0.778896 1 2 tcp 1040 ------- 1 0.0 3.0 11 36
r 0.780192 1 0 ack 40 ------- 1 3.0 0.0 8 41
+ 0.780192 0 1 tcp 1040 ------- 1 0.0 3.0 17 51
- 0.780192 0 1 tcp 1040 ------- 1 0.0 3.0 17 51
+ 0.780192 0 1 tcp 1040 ------- 1 0.0 3.0 18 52
r 0.780576 1 2 tcp 1040 ------- 2 4.0 5.0 9 33
+ 0.780576 2 5 tcp 1040 ------- 2 4.0 5.0 9 33
- 0.780576 2 5 tcp 1040 ------- 2 4.0 5.0 9 33
- 0.781024 0 1 tcp 1040 ------- 1 0.0 3.0 18 52
r 0.782704 0 1 tcp 1040 ------- 1 0.0 3.0 15 48
+ 0.782704 1 2 tcp 1040 ------- 1 0.0 3.0 15 48
r 0.783088 2 5 tcp 1040 ------- 2 4.0 5.0 8 31
+ 0.783088 5 2 ack 40 ------- 2 5.0 4.0 8 53
- 0.783088 5 2 ack 40 ------- 2 5.0 4.0 8 53
r 0.783536 0 1 tcp 1040 ------- 1 0.0 3.0 16 49
+ 0.783536 1 2 tcp 1040 ------- 1 0.0 3.0 16 49
r 0.7848 5 2 ack 40 ------- 2 5.0 4.0 7 50
+ 0.7848 2 1 ack 40 ------- 2 5.0 4.0 7 50
- 0.7848 2 1 ack 40 ------- 2 5.0 4.0 7 50
r 0.7868 2 1 ack 40 ------- 1 3.0 0.0 10 47
+ 0.7868 1 0 ack 40 ------- 1 3.0 0.0 10 47
- 0.7868 1 0 ack 40 ------- 1 3.0 0.0 10 47
- 0.787216 1 2 tcp 1040 ------- 1 0.0 3.0 12 37
r 0.788512 1 0 ack 40 ------- 1 3.0 0.0 9 44
+ 0.788512 0 1 tcp 1040 ------- 1 0.0 3.0 19 54
- 0.788512 0 1 tcp 1040 ------- 1 0.0 3.0 19 54
+ 0.788512 0 1 tcp 1040 ------- 1 0.0 3.0 20 55
r 0.788896 1 2 tcp 1040 ------- 2 4.0 5.0 10 34
+ 0.788896 2 5 tcp 1040 ------- 2 4.0 5.0 10 34
- 0.788896 2 5 tcp 1040 ------- 2 4.0 5.0 10 34
- 0.789344 0 1 tcp 1040 ------- 1 0.0 3.0 20 55
r 0.791024 0 1 tcp 1040 ------- 1 0.0 3.0 17 51
+ 0.791024 1 2 tcp 1040 ------- 1 0.0 3.0 17 51
r 0.791408 2 5 tcp 1040 ------- 2 4.0 5.0 9 33
+ 0.791408 5 2 ack 40 ------- 2 5.0 4.0 9 56
- 0.791408 5 2 ack 40 ------- 2 5.0 4.0 9 56
r 0.791856 0 1 tcp 1040 ------- 1 0.0 3.0 18 52
+ 0.791856 1 2 tcp 1040 ------- 1 0.0 3.0 18 52
r 0.79312 5 2 ack 40 ------- 2 5.0 4.0 8 53
+ 0.79312 2 1 ack 40 ------- 2 5.0 4.0 8 53
- 0.79312 2 1 ack 40 ------- 2 5.0 4.0 8 53
r 0.79512 2 1 ack 40 ------- 2 5.0 4.0 7 50
+ 0.79512 1 4 ack 40 ------- 2 5.0 4.0 7 50
- 0.79512 1 4 ack 40 ------- 2 5.0 4.0 7 50
- 0.795536 1 2 tcp 1040 ------- 1 0.0 3.0 13 39
r 0.796832 1 0 ack 40 ------- 1 3.0 0.0 10 47
+ 0.796832 0 1 tcp 1040 ------- 1 0.0 3.0 21 57
- 0.796832 0 1 tcp 1040 ------- 1 0.0 3.0 21 57
+ 0.796832 0 1 tcp 1040 ------- 1 0.0 3.0 22 58
r 0.797216 1 2 tcp 1040 ------- 1 0.0 3.0 11 36
+ 0.797216 2 3 tcp 1040 ------- 1 0.0 3.0 11 36
- 0.797216 2 3 tcp 1040 ------- 1 0.0 3.0 11 36
- 0.797664 0 1 tcp 1040 ------- 1 0.0 3.0 22 58
r 0.799344 0 1 tcp 1040 ------- 1 0.0 3.0 19 54
+ 0.799344 1 2 tcp 1040 ------- 1 0.0 3.0 19 54
r 0.799728 2 5 tcp 1040 ------- 2 4.0 5.0 10 34
+ 0.799728 5 2 ack 40 ------- 2 5.0 4.0 10 59
- 0.799728 5 2 ack 40 ------- 2 5.0 4.0 10 59
r 0.800176 0 1 tcp 1040 ------- 1 0.0 3.0 20 55
+ 0.800176 1 2 tcp 1040 ------- 1 0.0 3.0 20 55
r 0.80144 5 2 ack 40 ------- 2 5.0 4.0 9 56
+ 0.80144 2 1 ack 40 ------- 2 5.0 4.0 9 56
- 0.80144 2 1 ack 40 ------- 2 5.0 4.0 9 56
r 0.80344 2 1 ack 40 ------- 2 5.0 4.0 8 53
+ 0.80344 1 4 ack 40 ------- 2 5.0 4.0 8 53
- 0.80344 1 4 ack 40 ------- 2 5.0 4.0 8 53
- 0.803856 1 2 tcp 1040 ------- 1 0.0 3.0 14 40
r 0.805152 1 4 ack 40 ------- 2 5.0 4.0 7 50
+ 0.805152 4 1 tcp 1040 ------- 2 4.0 5.0 15 60
- 0.805152 4 1 tcp 1040 ------- 2 4.0 5.0 15 60
+ 0.805152 4 1 tcp 1040 ------- 2 4.0 5.0 16 61
r 0.805536 1 2 tcp 1040 ------- 1 0.0 3.0 12 37
+ 0.805536 2 3 tcp 1040 ------- 1 0.0 3.0 12 37
- 0.805536 2 3 tcp 1040 ------- 1 0.0 3.0 12 37
- 0.805984 4 1 tcp 1040 ------- 2 4.0 5.0 16 61
r 0.807664 0 1 tcp 1040 ------- 1 0.0 3.0 21 57
+ 0.807664 1 2 tcp 1040 ------- 1 0.0 3.0 21 57
r 0.808048 2 3 tcp 1040 ------- 1 0.0 3.0 11 36
+ 0.808048 3 2 ack 40 ------- 1 3.0 0.0 11 62
- 0.808048 3 2 ack 40 ------- 1 3.0 0.0 11 62
r 0.808496 0 1 tcp 1040 ------- 1 0.0 3.0 22 58
+ 0.808496 1 2 tcp 1040 ------- 1 0.0 3.0 22 58
r 0.80976 5 2 ack 40 ------- 2 5.0 4.0 10 59
+ 0.80976 2 1 ack 40 ------- 2 5.0 4.0 10 59
- 0.80976 2 1 ack 40 ------- 2 5.0 4.0 10 59
r 0.81176 2 1 ack 40 ------- 2 5.0 4.0 9 56
+ 0.81176 1 4 ack 40 ------- 2 5.0 4.0 9 56
- 0.81176 1 4 ack 40 ------- 2 5.0 4.0 9 56
- 0.812176 1 2 tcp 1040 ------- 2 4.0 5.0 11 42
r 0.813472 1 4 ack 40 ------- 2 5.0 4.0 8 53
+ 0.813472 4 1 tcp 1040 ------- 2 4.0 5.0 17 63
- 0.813472 4 1 tcp 1040 ------- 2 4.0 5.0 17 63
+ 0.813472 4 1 tcp 1040 ------- 2 4.0 5.0 18 64
r 0.813856 1 2 tcp 1040 ------- 1 0.0 3.0 13 39
+ 0.813856 2 3 tcp 1040 ------- 1 0.0 3.0 13 39
- 0.813856 2 3 tcp 1040 ------- 1 0.0 3.0 13 39
- 0.814304 4 1 tcp 1040 ------- 2 4.0 5.0 18 64
r 0.815984 4 1 tcp 1040 ------- 2 4.0 5.0 15 60
+ 0.815984 1 2 tcp 1040 ------- 2 4.0 5.0 15 60
r 0.816368 2 3 tcp 1040 ------- 1 0.0 3.0 12 37
+ 0.816368 3 2 ack 40 ------- 1 3.0 0.0 12 65
- 0.816368 3 2 ack 40 ------- 1 3.0 0.0 12 65
r 0.816816 4 1 tcp 1040 ------- 2 4.0 5.0 16 61
+ 0.816816 1 2 tcp 1040 ------- 2 4.0 5.0 16 61
r 0.81808 3 2 ack 40 ------- 1 3.0 0.0 11 62
+ 0.81808 2 1 ack 40 ------- 1 3.0 0.0 11 62
- 0.81808 2 1 ack 40 ------- 1 3.0 0.0 11 62
r 0.82008 2 1 ack 40 ------- 2 5.0 4.0 10 59
+ 0.82008 1 4 ack 40 ------- 2 5.0 4.0 10 59
- 0.82008 1 4 ack 40 ------- 2 5.0 4.0 10 59
- 0.820496 1 2 tcp 1040 ------- 2 4.0 5.0 12 43
r 0.821792 1 4 ack 40 ------- 2 5.0 4.0 9 56
+ 0.821792 4 1 tcp 1040 ------- 2 4.0 5.0 19 66
- 0.821792 4 1 tcp 1040 ------- 2 4.0 5.0 19 66
+ 0.821792 4 1 tcp 1040 ------- 2 4.0 5.0 20 67
r 0.822176 1 2 tcp 1040 ------- 1 0.0 3.0 14 40
+ 0.822176 2 3 tcp 1040 ------- 1 0.0 3.0 14 40
- 0.822176 2 3 tcp 1040 ------- 1 0.0 3.0 14 40
- 0.822624 4 1 tcp 1040 ------- 2 4.0 5.0 20 67
r 0.824304 4 1 tcp 1040 ------- 2 4.0 5.0 17 63
+ 0.824304 1 2 tcp 1040 ------- 2 4.0 5.0 17 63
r 0.824688 2 3 tcp 1040 ------- 1 0.0 3.0 13 39
+ 0.824688 3 2 ack 40 ------- 1 3.0 0.0 13 68
- 0.824688 3 2 ack 40 ------- 1 3.0 0.0 13 68
r 0.825136 4 1 tcp 1040 ------- 2 4.0 5.0 18 64
+ 0.825136 1 2 tcp 1040 ------- 2 4.0 5.0 18 64
r 0.8264 3 2 ack 40 ------- 1 3.0 0.0 12 65
+ 0.8264 2 1 ack 40 ------- 1 3.0 0.0 12 65
- 0.8264 2 1 ack 40 ------- 1 3.0 0.0 12 65
r 0.8284 2 1 ack 40 ------- 1 3.0 0.0 11 62
+ 0.8284 1 0 ack 40 ------- 1 3.0 0.0 11 62
- 0.8284 1 0 ack 40 ------- 1 3.0 0.0 11 62
- 0.828816 1 2 tcp 1040 ------- 2 4.0 5.0 13 45
r 0.830112 1 4 ack 40 ------- 2 5.0 4.0 10 59
+ 0.830112 4 1 tcp 1040 ------- 2 4.0 5.0 21 69
- 0.830112 4 1 tcp 1040 ------- 2 4.0 5.0 21 69
+ 0.830112 4 1 tcp 1040 ------- 2 4.0 5.0 22 70
r 0.830496 1 2 tcp 1040 ------- 2 4.0 5.0 11 42
+ 0.830496 2 5 tcp 1040 ------- 2 4.0 5.0 11 42
- 0.830496 2 5 tcp 1040 ------- 2 4.0 5.0 11 42
- 0.830944 4 1 tcp 1040 ------- 2 4.0 5.0 22 70
r 0.832624 4 1 tcp 1040 ------- 2 4.0 5.0 19 66
+ 0.832624 1 2 tcp 1040 ------- 2 4.0 5.0 19 66
r 0.833008 2 3 tcp 1040 ------- 1 0.0 3.0 14 40
+ 0.833008 3 2 ack 40 ------- 1 3.0 0.0 14 71
- 0.833008 3 2 ack 40 ------- 1 3.0 0.0 14 71
r 0.833456 4 1 tcp 1040 ------- 2 4.0 5.0 20 67
+ 0.833456 1 2 tcp 1040 ------- 2 4.0 5.0 20 67
r 0.83472 3 2 ack 40 ------- 1 3.0 0.0 13 68
+ 0.83472 2 1 ack 40 ------- 1 3.0 0.0 13 68
- 0.83472 2 1 ack 40 ------- 1 3.0 0.0 13 68
r 0.83672 2 1 ack 40 ------- 1 3.0 0.0 12 65
+ 0.83672 1 0 ack 40 ------- 1 3.0 0.0 12 65
- 0.83672 1 0 ack 40 ------- 1 3.0 0.0 12 65
- 0.837136 1 2 tcp 1040 ------- 2 4.0 5.0 14 46
r 0.838432 1 0 ack 40 ------- 1 3.0 0.0 11 62
+ 0.838432 0 1 tcp 1040 ------- 1 0.0 3.0 23 72
- 0.838432 0 1 tcp 1040 ------- 1 0.0 3.0 23 72
+ 0.838432 0 1 tcp 1040 ------- 1 0.0 3.0 24 73
r 0.838816 1 2 tcp 1040 ------- 2 4.0 5.0 12 43
+ 0.838816 2 5 tcp 1040 ------- 2 4.0 5.0 12 43
- 0.838816 2 5 tcp 1040 ------- 2 4.0 5.0 12 43
- 0.839264 0 1 tcp 1040 ------- 1 0.0 3.0 24 73
r 0.840944 4 1 tcp 1040 ------- 2 4.0 5.0 21 69
+ 0.840944 1 2 tcp 1040 ------- 2 4.0 5.0 21 69
r 0.841328 2 5 tcp 1040 ------- 2 4.0 5.0 11 42
+ 0.841328 5 2 ack 40 ------- 2 5.0 4.0 11 74
- 0.841328 5 2 ack 40 ------- 2 5.0 4.0 11 74
r 0.841776 4 1 tcp 1040 ------- 2 4.0 5.0 22 70
+ 0.841776 1 2 tcp 1040 ------- 2 4.0 5.0 22 70
r 0.84304 3 2 ack 40 ------- 1 3.0 0.0 14 71
+ 0.84304 2 1 ack 40 ------- 1 3.0 0.0 14 71
- 0.84304 2 1 ack 40 ------- 1 3.0 0.0 14 71
r 0.84504 2 1 ack 40 ------- 1 3.0 0.0 13 68
+ 0.84504 1 0 ack 40 ------- 1 3.0 0.0 13 68
- 0.84504 1 0 ack 40 ------- 1 3.0 0.0 13 68
- 0.845456 1 2 tcp 1040 ------- 1 0.0 3.0 15 48
r 0.846752 1 0 ack 40 ------- 1 3.0 0.0 12 65
+ 0.846752 0 1 tcp 1040 ------- 1 0.0 3.0 25 75
- 0.846752 0 1 tcp 1040 ------- 1 0.0 3.0 25 75
+ 0.846752 0 1 tcp 1040 ------- 1 0.0 3.0 26 76
r 0.847136 1 2 tcp 1040 ------- 2 4.0 5.0 13 45
+ 0.847136 2 5 tcp 1040 ------- 2 4.0 5.0 13 45
- 0.847136 2 5 tcp 1040 ------- 2 4.0 5.0 13 45
- 0.847584 0 1 tcp 1040 ------- 1 0.0 3.0 26 76
r 0.849264 0 1 tcp 1040 ------- 1 0.0 3.0 23 72
+ 0.849264 1 2 tcp 1040 ------- 1 0.0 3.0 23 72
r 0.849648 2 5 tcp 1040 ------- 2 4.0 5.0 12 43
+ 0.849648 5 2 ack 40 ------- 2 5.0 4.0 12 77
- 0.849648 5 2 ack 40 ------- 2 5.0 4.0 12 77
r 0.850096 0 1 tcp 1040 ------- 1 0.0 3.0 24 73
+ 0.850096 1 2 tcp 1040 ------- 1 0.0 3.0 24 73
r 0.85136 5 2 ack 40 ------- 2 5.0 4.0 11 74
+ 0.85136 2 1 ack 40 ------- 2 5.0 4.0 11 74
- 0.85136 2 1 ack 40 ------- 2 5.0 4.0 11 74
r 0.85336 2 1 ack 40 ------- 1 3.0 0.0 14 71
+ 0.85336 1 0 ack 40 ------- 1 3.0 0.0 14 71
- 0.85336 1 0 ack 40 ------- 1 3.0 0.0 14 71
- 0.853776 1 2 tcp 1040 ------- 1 0.0 3.0 16 49
r 0.855072 1 0 ack 40 ------- 1 3.0 0.0 13 68
+ 0.855072 0 1 tcp 1040 ------- 1 0.0 3.0 27 78
- 0.855072 0 1 tcp 1040 ------- 1 0.0 3.0 27 78
+ 0.855072 0 1 tcp 1040 ------- 1 0.0 3.0 28 79
r 0.855456 1 2 tcp 1040 ------- 2 4.0 5.0 14 46
+ 0.855456 2 5 tcp 1040 ------- 2 4.0 5.0 14 46
- 0.855456 2 5 tcp 1040 ------- 2 4.0 5.0 14 46
- 0.855904 0 1 tcp 1040 ------- 1 0.0 3.0 28 79
r 0.857584 0 1 tcp 1040 ------- 1 0.0 3.0 25 75
+ 0.857584 1 2 tcp 1040 ------- 1 0.0 3.0 25 75
r 0.857968 2 5 tcp 1040 ------- 2 4.0 5.0 13 45
+ 0.857968 5 2 ack 40 ------- 2 5.0 4.0 13 80
- 0.857968 5 2 ack 40 ------- 2 5.0 4.0 13 80
r 0.858416 0 1 tcp 1040 ------- 1 0.0 3.0 26 76
+ 0.858416 1 2 tcp 1040 ------- 1 0.0 3.0 26 76
r 0.85968 5 2 ack 40 ------- 2 5.0 4.0 12 77
+ 0.85968 2 1 ack 40 ------- 2 5.0 4.0 12 77
- 0.85968 2 1 ack 40 ------- 2 5.0 4.0 12 77
r 0.86168 2 1 ack 40 ------- 2 5.0 4.0 11 74
+ 0.86168 1 4 ack 40 ------- 2 5.0 4.0 11 74
- 0.86168 1 4 ack 40 ------- 2 5.0 4.0 11 74
- 0.862096 1 2 tcp 1040 ------- 1 0.0 3.0 17 51
r 0.863392 1 0 ack 40 ------- 1 3.0 0.0 14 71
+ 0.863392 0 1 tcp 1040 ------- 1 0.0 3.0 29 81
- 0.863392 0 1 tcp 1040 ------- 1 0.0 3.0 29 81
+ 0.863392 0 1 tcp 1040 ------- 1 0.0 3.0 30 82
r 0.863776 1 2 tcp 1040 ------- 1 0.0 3.0 15 48
+ 0.863776 2 3 tcp 1040 ------- 1 0.0 3.0 15 48
- 0.863776 2 3 tcp 1040 ------- 1 0.0 3.0 15 48
- 0.864224 0 1 tcp 1040 ------- 1 0.0 3.0 30 82
r 0.865904 0 1 tcp 1040 ------- 1 0.0 3.0 27 78
+ 0.865904 1 2 tcp 1040 ------- 1 0.0 3.0 27 78
r 0.866288 2 5 tcp 1040 ------- 2 4.0 5.0 14 46
+ 0.866288 5 2 ack 40 ------- 2 5.0 4.0 14 83
- 0.866288 5 2 ack 40 ------- 2 5.0 4.0 14 83
r 0.866736 0 1 tcp 1040 ------- 1 0.0 3.0 28 79
+ 0.866736 1 2 tcp 1040 ------- 1 0.0 3.0 28 79
r 0.868 5 2 ack 40 ------- 2 5.0 4.0 13 80
+ 0.868 2 1 ack 40 ------- 2 5.0 4.0 13 80
- 0.868 2 1 ack 40 ------- 2 5.0 4.0 13 80
r 0.87 2 1 ack 40 ------- 2 5.0 4.0 12 77
+ 0.87 1 4 ack 40 ------- 2 5.0 4.0 12 77
- 0.87 1 4 ack 40 ------- 2 5.0 4.0 12 77
- 0.870416 1 2 tcp 1040 ------- 1 0.0 3.0 18 52
r 0.871712 1 4 ack 40 ------- 2 5.0 4.0 11 74
+ 0.871712 4 1 tcp 1040 ------- 2 4.0 5.0 23 84
- 0.871712 4 1 tcp 1040 ------- 2 4.0 5.0 23 84
+ 0.871712 4 1 tcp 1040 ------- 2 4.0 5.0 24 85
r 0.872096 1 2 tcp 1040 ------- 1 0.0 3.0 16 49
+ 0.872096 2 3 tcp 1040 ------- 1 0.0 3.0 16 49
- 0.872096 2 3 tcp 1040 ------- 1 0.0 3.0 16 49
- 0.872544 4 1 tcp 1040 ------- 2 4.0 5.0 24 85
r 0.874224 0 1 tcp 1040 ------- 1 0.0 3.0 29 81
+ 0.874224 1 2 tcp 1040 ------- 1 0.0 3.0 29 81
r 0.874608 2 3 tcp 1040 ------- 1 0.0 3.0 15 48
+ 0.874608 3 2 ack 40 ------- 1 3.0 0.0 15 86
- 0.874608 3 2 ack 40 ------- 1 3.0 0.0 15 86
r 0.875056 0 1 tcp 1040 ------- 1 0.0 3.0 30 82
+ 0.875056 1 2 tcp 1040 ------- 1 0.0 3.0 30 82
r 0.87632 5 2 ack 40 ------- 2 5.0 4.0 14 83
+ 0.87632 2 1 ack 40 ------- 2 5.0 4.0 14 83
- 0.87632 2 1 ack 40 ------- 2 5.0 4.0 14 83
r 0.87832 2 1 ack 40 ------- 2 5.0 4.0 13 80
+ 0.87832 1 4 ack 40 ------- 2 5.0 4.0 13 80
- 0.87832 1 4 ack 40 ------- 2 5.0 4.0 13 80
- 0.878736 1 2 tcp 1040 ------- 1 0.0 3.0 19 54
r 0.880032 1 4 ack 40 ------- 2 5.0 4.0 12 77
+ 0.880032 4 1 tcp 1040 ------- 2 4.0 5.0 25 87