+ 0.5 1 2 cbr 500 ------- 0 1.0 2.0 0 0
- 0.5 1 2 cbr 500 ------- 0 1.0 2.0 0 0
+ 0.5 0 1 tcp 40 ------- 1 0.0 3.0 0 1
- 0.5 0 1 tcp 40 ------- 1 0.0 3.0 0 1
+ 0.505 1 2 cbr 500 ------- 0 1.0 2.0 1 2
- 0.505 1 2 cbr 500 ------- 0 1.0 2.0 1 2
+ 0.51 1 2 cbr 500 ------- 0 1.0 2.0 2 3
- 0.51 1 2 cbr 500 ------- 0 1.0 2.0 2 3
r 0.51032 0 1 tcp 40 ------- 1 0.0 3.0 0 1
+ 0.51032 1 2 tcp 40 ------- 1 0.0 3.0 0 1
r 0.514 1 2 cbr 500 ------- 0 1.0 2.0 0 0
- 0.514 1 2 tcp 40 ------- 1 0.0 3.0 0 1
+ 0.515 1 2 cbr 500 ------- 0 1.0 2.0 3 4
- 0.515 1 2 cbr 500 ------- 0 1.0 2.0 3 4
r 0.519 1 2 cbr 500 ------- 0 1.0 2.0 1 2
+ 0.52 1 2 cbr 500 ------- 0 1.0 2.0 4 5
- 0.52 1 2 cbr 500 ------- 0 1.0 2.0 4 5
r 0.524 1 2 cbr 500 ------- 0 1.0 2.0 2 3
r 0.52432 1 2 tcp 40 ------- 1 0.0 3.0 0 1
+ 0.52432 2 3 tcp 40 ------- 1 0.0 3.0 0 1
- 0.52432 2 3 tcp 40 ------- 1 0.0 3.0 0 1
+ 0.525 1 2 cbr 500 ------- 0 1.0 2.0 5 6
- 0.525 1 2 cbr 500 ------- 0 1.0 2.0 5 6
r 0.529 1 2 cbr 500 ------- 0 1.0 2.0 3 4
+ 0.53 1 2 cbr 500 ------- 0 1.0 2.0 6 7
- 0.53 1 2 cbr 500 ------- 0 1.0 2.0 6 7
r 0.534 1 2 cbr 500 ------- 0 1.0 2.0 4 5
r 0.53464 2 3 tcp 40 ------- 1 0.0 3.0 0 1
+ 0.53464 3 2 ack 40 ------- 1 3.0 0.0 0 8
- 0.53464 3 2 ack 40 ------- 1 3.0 0.0 0 8
+ 0.535 1 2 cbr 500 ------- 0 1.0 2.0 7 9
- 0.535 1 2 cbr 500 ------- 0 1.0 2.0 7 9
r 0.539 1 2 cbr 500 ------- 0 1.0 2.0 5 6
+ 0.54 1 2 cbr 500 ------- 0 1.0 2.0 8 10
- 0.54 1 2 cbr 500 ------- 0 1.0 2.0 8 10
r 0.544 1 2 cbr 500 ------- 0 1.0 2.0 6 7
r 0.54496 3 2 ack 40 ------- 1 3.0 0.0 0 8
+ 0.54496 2 1 ack 40 ------- 1 3.0 0.0 0 8
- 0.54496 2 1 ack 40 ------- 1 3.0 0.0 0 8
+ 0.545 1 2 cbr 500 ------- 0 1.0 2.0 9 11
- 0.545 1 2 cbr 500 ------- 0 1.0 2.0 9 11
r 0.549 1 2 cbr 500 ------- 0 1.0 2.0 7 9
+ 0.55 1 2 cbr 500 ------- 0 1.0 2.0 10 12
- 0.55 1 2 cbr 500 ------- 0 1.0 2.0 10 12
r 0.554 1 2 cbr 500 ------- 0 1.0 2.0 8 10
+ 0.555 1 2 cbr 500 ------- 0 1.0 2.0 11 13
- 0.555 1 2 cbr 500 ------- 0 1.0 2.0 11 13
r 0.55528 2 1 ack 40 ------- 1 3.0 0.0 0 8
+ 0.55528 1 0 ack 40 ------- 1 3.0 0.0 0 8
- 0.55528 1 0 ack 40 ------- 1 3.0 0.0 0 8
r 0.559 1 2 cbr 500 ------- 0 1.0 2.0 9 11
+ 0.56 1 2 cbr 500 ------- 0 1.0 2.0 12 14
- 0.56 1 2 cbr 500 ------- 0 1.0 2.0 12 14
r 0.564 1 2 cbr 500 ------- 0 1.0 2.0 10 12
+ 0.565 1 2 cbr 500 ------- 0 1.0 2.0 13 15
- 0.565 1 2 cbr 500 ------- 0 1.0 2.0 13 15
r 0.5656 1 0 ack 40 ------- 1 3.0 0.0 0 8
+ 0.5656 0 1 tcp 1040 ------- 1 0.0 3.0 1 16
- 0.5656 0 1 tcp 1040 ------- 1 0.0 3.0 1 16
+ 0.5656 0 1 tcp 1040 ------- 1 0.0 3.0 2 17
r 0.569 1 2 cbr 500 ------- 0 1.0 2.0 11 13
+ 0.57 1 2 cbr 500 ------- 0 1.0 2.0 14 18
- 0.57 1 2 cbr 500 ------- 0 1.0 2.0 14 18
- 0.57392 0 1 tcp 1040 ------- 1 0.0 3.0 2 17
r 0.574 1 2 cbr 500 ------- 0 1.0 2.0 12 14
+ 0.575 1 2 cbr 500 ------- 0 1.0 2.0 15 19
- 0.575 1 2 cbr 500 ------- 0 1.0 2.0 15 19
r 0.579 1 2 cbr 500 ------- 0 1.0 2.0 13 15
+ 0.58 1 2 cbr 500 ------- 0 1.0 2.0 16 20
- 0.58 1 2 cbr 500 ------- 0 1.0 2.0 16 20
r 0.58392 0 1 tcp 1040 ------- 1 0.0 3.0 1 16
+ 0.58392 1 2 tcp 1040 ------- 1 0.0 3.0 1 16
r 0.584 1 2 cbr 500 ------- 0 1.0 2.0 14 18
- 0.584 1 2 tcp 1040 ------- 1 0.0 3.0 1 16
+ 0.585 1 2 cbr 500 ------- 0 1.0 2.0 17 21
r 0.589 1 2 cbr 500 ------- 0 1.0 2.0 15 19
+ 0.59 1 2 cbr 500 ------- 0 1.0 2.0 18 22
r 0.59224 0 1 tcp 1040 ------- 1 0.0 3.0 2 17
+ 0.59224 1 2 tcp 1040 ------- 1 0.0 3.0 2 17
- 0.59232 1 2 cbr 500 ------- 0 1.0 2.0 17 21
r 0.594 1 2 cbr 500 ------- 0 1.0 2.0 16 20
+ 0.595 1 2 cbr 500 ------- 0 1.0 2.0 19 23
- 0.59632 1 2 cbr 500 ------- 0 1.0 2.0 18 22
+ 0.6 1 2 cbr 500 ------- 0 1.0 2.0 20 24
- 0.60032 1 2 tcp 1040 ------- 1 0.0 3.0 2 17
r 0.60232 1 2 tcp 1040 ------- 1 0.0 3.0 1 16
+ 0.60232 2 3 tcp 1040 ------- 1 0.0 3.0 1 16
- 0.60232 2 3 tcp 1040 ------- 1 0.0 3.0 1 16
+ 0.605 1 2 cbr 500 ------- 0 1.0 2.0 21 25
r 0.60632 1 2 cbr 500 ------- 0 1.0 2.0 17 21
- 0.60864 1 2 cbr 500 ------- 0 1.0 2.0 19 23
+ 0.61 1 2 cbr 500 ------- 0 1.0 2.0 22 26
r 0.61032 1 2 cbr 500 ------- 0 1.0 2.0 18 22
- 0.61264 1 2 cbr 500 ------- 0 1.0 2.0 20 24
+ 0.615 1 2 cbr 500 ------- 0 1.0 2.0 23 27
- 0.61664 1 2 cbr 500 ------- 0 1.0 2.0 21 25
r 0.61864 1 2 tcp 1040 ------- 1 0.0 3.0 2 17
+ 0.61864 2 3 tcp 1040 ------- 1 0.0 3.0 2 17
- 0.61864 2 3 tcp 1040 ------- 1 0.0 3.0 2 17
+ 0.62 1 2 cbr 500 ------- 0 1.0 2.0 24 28
r 0.62064 2 3 tcp 1040 ------- 1 0.0 3.0 1 16
+ 0.62064 3 2 ack 40 ------- 1 3.0 0.0 1 29
- 0.62064 3 2 ack 40 ------- 1 3.0 0.0 1 29
- 0.62064 1 2 cbr 500 ------- 0 1.0 2.0 22 26
r 0.62264 1 2 cbr 500 ------- 0 1.0 2.0 19 23
- 0.62464 1 2 cbr 500 ------- 0 1.0 2.0 23 27
+ 0.625 1 2 cbr 500 ------- 0 1.0 2.0 25 30
r 0.62664 1 2 cbr 500 ------- 0 1.0 2.0 20 24
- 0.62864 1 2 cbr 500 ------- 0 1.0 2.0 24 28
+ 0.63 1 2 cbr 500 ------- 0 1.0 2.0 26 31
r 0.63064 1 2 cbr 500 ------- 0 1.0 2.0 21 25
r 0.63096 3 2 ack 40 ------- 1 3.0 0.0 1 29
+ 0.63096 2 1 ack 40 ------- 1 3.0 0.0 1 29
- 0.63096 2 1 ack 40 ------- 1 3.0 0.0 1 29
- 0.63264 1 2 cbr 500 ------- 0 1.0 2.0 25 30
r 0.63464 1 2 cbr 500 ------- 0 1.0 2.0 22 26
+ 0.635 1 2 cbr 500 ------- 0 1.0 2.0 27 32
- 0.63664 1 2 cbr 500 ------- 0 1.0 2.0 26 31
r 0.63696 2 3 tcp 1040 ------- 1 0.0 3.0 2 17
+ 0.63696 3 2 ack 40 ------- 1 3.0 0.0 2 33
- 0.63696 3 2 ack 40 ------- 1 3.0 0.0 2 33
r 0.63864 1 2 cbr 500 ------- 0 1.0 2.0 23 27
+ 0.64 1 2 cbr 500 ------- 0 1.0 2.0 28 34
- 0.64064 1 2 cbr 500 ------- 0 1.0 2.0 27 32
r 0.64128 2 1 ack 40 ------- 1 3.0 0.0 1 29
+ 0.64128 1 0 ack 40 ------- 1 3.0 0.0 1 29
- 0.64128 1 0 ack 40 ------- 1 3.0 0.0 1 29
r 0.64264 1 2 cbr 500 ------- 0 1.0 2.0 24 28
- 0.64464 1 2 cbr 500 ------- 0 1.0 2.0 28 34
+ 0.645 1 2 cbr 500 ------- 0 1.0 2.0 29 35
r 0.64664 1 2 cbr 500 ------- 0 1.0 2.0 25 30
r 0.64728 3 2 ack 40 ------- 1 3.0 0.0 2 33
+ 0.64728 2 1 ack 40 ------- 1 3.0 0.0 2 33
- 0.64728 2 1 ack 40 ------- 1 3.0 0.0 2 33
- 0.64864 1 2 cbr 500 ------- 0 1.0 2.0 29 35
+ 0.65 1 2 cbr 500 ------- 0 1.0 2.0 30 36
r 0.65064 1 2 cbr 500 ------- 0 1.0 2.0 26 31
r 0.6516 1 0 ack 40 ------- 1 3.0 0.0 1 29
+ 0.6516 0 1 tcp 1040 ------- 1 0.0 3.0 3 37
- 0.6516 0 1 tcp 1040 ------- 1 0.0 3.0 3 37
+ 0.6516 0 1 tcp 1040 ------- 1 0.0 3.0 4 38
- 0.65264 1 2 cbr 500 ------- 0 1.0 2.0 30 36
r 0.65464 1 2 cbr 500 ------- 0 1.0 2.0 27 32
+ 0.655 1 2 cbr 500 ------- 0 1.0 2.0 31 39
- 0.65664 1 2 cbr 500 ------- 0 1.0 2.0 31 39
r 0.6576 2 1 ack 40 ------- 1 3.0 0.0 2 33
+ 0.6576 1 0 ack 40 ------- 1 3.0 0.0 2 33
- 0.6576 1 0 ack 40 ------- 1 3.0 0.0 2 33
r 0.65864 1 2 cbr 500 ------- 0 1.0 2.0 28 34
- 0.65992 0 1 tcp 1040 ------- 1 0.0 3.0 4 38
+ 0.66 1 2 cbr 500 ------- 0 1.0 2.0 32 40
- 0.66064 1 2 cbr 500 ------- 0 1.0 2.0 32 40
r 0.66264 1 2 cbr 500 ------- 0 1.0 2.0 29 35
+ 0.665 1 2 cbr 500 ------- 0 1.0 2.0 33 41
- 0.665 1 2 cbr 500 ------- 0 1.0 2.0 33 41
r 0.66664 1 2 cbr 500 ------- 0 1.0 2.0 30 36
r 0.66792 1 0 ack 40 ------- 1 3.0 0.0 2 33
+ 0.66792 0 1 tcp 1040 ------- 1 0.0 3.0 5 42
+ 0.66792 0 1 tcp 1040 ------- 1 0.0 3.0 6 43
- 0.66824 0 1 tcp 1040 ------- 1 0.0 3.0 5 42
r 0.66992 0 1 tcp 1040 ------- 1 0.0 3.0 3 37
+ 0.66992 1 2 tcp 1040 ------- 1 0.0 3.0 3 37
- 0.66992 1 2 tcp 1040 ------- 1 0.0 3.0 3 37
+ 0.67 1 2 cbr 500 ------- 0 1.0 2.0 34 44
r 0.67064 1 2 cbr 500 ------- 0 1.0 2.0 31 39
r 0.67464 1 2 cbr 500 ------- 0 1.0 2.0 32 40
+ 0.675 1 2 cbr 500 ------- 0 1.0 2.0 35 45
- 0.67656 0 1 tcp 1040 ------- 1 0.0 3.0 6 43
r 0.67824 0 1 tcp 1040 ------- 1 0.0 3.0 4 38
+ 0.67824 1 2 tcp 1040 ------- 1 0.0 3.0 4 38
- 0.67824 1 2 cbr 500 ------- 0 1.0 2.0 34 44
r 0.679 1 2 cbr 500 ------- 0 1.0 2.0 33 41
+ 0.68 1 2 cbr 500 ------- 0 1.0 2.0 36 46
- 0.68224 1 2 cbr 500 ------- 0 1.0 2.0 35 45
+ 0.685 1 2 cbr 500 ------- 0 1.0 2.0 37 47
- 0.68624 1 2 tcp 1040 ------- 1 0.0 3.0 4 38
r 0.68656 0 1 tcp 1040 ------- 1 0.0 3.0 5 42
+ 0.68656 1 2 tcp 1040 ------- 1 0.0 3.0 5 42
r 0.68824 1 2 tcp 1040 ------- 1 0.0 3.0 3 37
+ 0.68824 2 3 tcp 1040 ------- 1 0.0 3.0 3 37
- 0.68824 2 3 tcp 1040 ------- 1 0.0 3.0 3 37
+ 0.69 1 2 cbr 500 ------- 0 1.0 2.0 38 48
r 0.69224 1 2 cbr 500 ------- 0 1.0 2.0 34 44
- 0.69456 1 2 cbr 500 ------- 0 1.0 2.0 36 46
r 0.69488 0 1 tcp 1040 ------- 1 0.0 3.0 6 43
+ 0.69488 1 2 tcp 1040 ------- 1 0.0 3.0 6 43
+ 0.695 1 2 cbr 500 ------- 0 1.0 2.0 39 49
r 0.69624 1 2 cbr 500 ------- 0 1.0 2.0 35 45
- 0.69856 1 2 cbr 500 ------- 0 1.0 2.0 37 47
+ 0.7 1 2 cbr 500 ------- 0 1.0 2.0 40 50
- 0.70256 1 2 tcp 1040 ------- 1 0.0 3.0 5 42
r 0.70456 1 2 tcp 1040 ------- 1 0.0 3.0 4 38
+ 0.70456 2 3 tcp 1040 ------- 1 0.0 3.0 4 38
- 0.70456 2 3 tcp 1040 ------- 1 0.0 3.0 4 38
+ 0.705 1 2 cbr 500 ------- 0 1.0 2.0 41 51
r 0.70656 2 3 tcp 1040 ------- 1 0.0 3.0 3 37
+ 0.70656 3 2 ack 40 ------- 1 3.0 0.0 3 52
- 0.70656 3 2 ack 40 ------- 1 3.0 0.0 3 52
r 0.70856 1 2 cbr 500 ------- 0 1.0 2.0 36 46
+ 0.71 1 2 cbr 500 ------- 0 1.0 2.0 42 53
- 0.71088 1 2 cbr 500 ------- 0 1.0 2.0 38 48
r 0.71256 1 2 cbr 500 ------- 0 1.0 2.0 37 47
- 0.71488 1 2 tcp 1040 ------- 1 0.0 3.0 6 43
+ 0.715 1 2 cbr 500 ------- 0 1.0 2.0 43 54
r 0.71688 3 2 ack 40 ------- 1 3.0 0.0 3 52
+ 0.71688 2 1 ack 40 ------- 1 3.0 0.0 3 52
- 0.71688 2 1 ack 40 ------- 1 3.0 0.0 3 52
+ 0.72 1 2 cbr 500 ------- 0 1.0 2.0 44 55
r 0.72088 1 2 tcp 1040 ------- 1 0.0 3.0 5 42
+ 0.72088 2 3 tcp 1040 ------- 1 0.0 3.0 5 42
- 0.72088 2 3 tcp 1040 ------- 1 0.0 3.0 5 42
r 0.72288 2 3 tcp 1040 ------- 1 0.0 3.0 4 38
+ 0.72288 3 2 ack 40 ------- 1 3.0 0.0 4 56
- 0.72288 3 2 ack 40 ------- 1 3.0 0.0 4 56
- 0.7232 1 2 cbr 500 ------- 0 1.0 2.0 39 49
r 0.72488 1 2 cbr 500 ------- 0 1.0 2.0 38 48
+ 0.725 1 2 cbr 500 ------- 0 1.0 2.0 45 57
r 0.7272 2 1 ack 40 ------- 1 3.0 0.0 3 52
+ 0.7272 1 0 ack 40 ------- 1 3.0 0.0 3 52
- 0.7272 1 0 ack 40 ------- 1 3.0 0.0 3 52
- 0.7272 1 2 cbr 500 ------- 0 1.0 2.0 40 50
+ 0.73 1 2 cbr 500 ------- 0 1.0 2.0 46 58
- 0.7312 1 2 cbr 500 ------- 0 1.0 2.0 41 51
r 0.7332 1 2 tcp 1040 ------- 1 0.0 3.0 6 43
+ 0.7332 2 3 tcp 1040 ------- 1 0.0 3.0 6 43
- 0.7332 2 3 tcp 1040 ------- 1 0.0 3.0 6 43
r 0.7332 3 2 ack 40 ------- 1 3.0 0.0 4 56
+ 0.7332 2 1 ack 40 ------- 1 3.0 0.0 4 56
- 0.7332 2 1 ack 40 ------- 1 3.0 0.0 4 56
+ 0.735 1 2 cbr 500 ------- 0 1.0 2.0 47 59
- 0.7352 1 2 cbr 500 ------- 0 1.0 2.0 42 53
r 0.7372 1 2 cbr 500 ------- 0 1.0 2.0 39 49
r 0.73752 1 0 ack 40 ------- 1 3.0 0.0 3 52
+ 0.73752 0 1 tcp 1040 ------- 1 0.0 3.0 7 60
- 0.73752 0 1 tcp 1040 ------- 1 0.0 3.0 7 60
+ 0.73752 0 1 tcp 1040 ------- 1 0.0 3.0 8 61
r 0.7392 2 3 tcp 1040 ------- 1 0.0 3.0 5 42
+ 0.7392 3 2 ack 40 ------- 1 3.0 0.0 5 62
- 0.7392 3 2 ack 40 ------- 1 3.0 0.0 5 62
- 0.7392 1 2 cbr 500 ------- 0 1.0 2.0 43 54
+ 0.74 1 2 cbr 500 ------- 0 1.0 2.0 48 63
r 0.7412 1 2 cbr 500 ------- 0 1.0 2.0 40 50
- 0.7432 1 2 cbr 500 ------- 0 1.0 2.0 44 55
r 0.74352 2 1 ack 40 ------- 1 3.0 0.0 4 56
+ 0.74352 1 0 ack 40 ------- 1 3.0 0.0 4 56
- 0.74352 1 0 ack 40 ------- 1 3.0 0.0 4 56
+ 0.745 1 2 cbr 500 ------- 0 1.0 2.0 49 64
r 0.7452 1 2 cbr 500 ------- 0 1.0 2.0 41 51
- 0.74584 0 1 tcp 1040 ------- 1 0.0 3.0 8 61
- 0.7472 1 2 cbr 500 ------- 0 1.0 2.0 45 57
r 0.7492 1 2 cbr 500 ------- 0 1.0 2.0 42 53
r 0.74952 3 2 ack 40 ------- 1 3.0 0.0 5 62
+ 0.74952 2 1 ack 40 ------- 1 3.0 0.0 5 62
- 0.74952 2 1 ack 40 ------- 1 3.0 0.0 5 62
+ 0.75 1 2 cbr 500 ------- 0 1.0 2.0 50 65
- 0.7512 1 2 cbr 500 ------- 0 1.0 2.0 46 58
r 0.75152 2 3 tcp 1040 ------- 1 0.0 3.0 6 43
+ 0.75152 3 2 ack 40 ------- 1 3.0 0.0 6 66
- 0.75152 3 2 ack 40 ------- 1 3.0 0.0 6 66
r 0.7532 1 2 cbr 500 ------- 0 1.0 2.0 43 54
r 0.75384 1 0 ack 40 ------- 1 3.0 0.0 4 56
+ 0.75384 0 1 tcp 1040 ------- 1 0.0 3.0 9 67
+ 0.75384 0 1 tcp 1040 ------- 1 0.0 3.0 10 68
- 0.75416 0 1 tcp 1040 ------- 1 0.0 3.0 9 67
+ 0.755 1 2 cbr 500 ------- 0 1.0 2.0 51 69
- 0.7552 1 2 cbr 500 ------- 0 1.0 2.0 47 59
r 0.75584 0 1 tcp 1040 ------- 1 0.0 3.0 7 60
+ 0.75584 1 2 tcp 1040 ------- 1 0.0 3.0 7 60
r 0.7572 1 2 cbr 500 ------- 0 1.0 2.0 44 55
- 0.7592 1 2 cbr 500 ------- 0 1.0 2.0 48 63
r 0.75984 2 1 ack 40 ------- 1 3.0 0.0 5 62
+ 0.75984 1 0 ack 40 ------- 1 3.0 0.0 5 62
- 0.75984 1 0 ack 40 ------- 1 3.0 0.0 5 62
+ 0.76 1 2 cbr 500 ------- 0 1.0 2.0 52 70
r 0.7612 1 2 cbr 500 ------- 0 1.0 2.0 45 57
r 0.76184 3 2 ack 40 ------- 1 3.0 0.0 6 66
+ 0.76184 2 1 ack 40 ------- 1 3.0 0.0 6 66
- 0.76184 2 1 ack 40 ------- 1 3.0 0.0 6 66
- 0.76248 0 1 tcp 1040 ------- 1 0.0 3.0 10 68
- 0.7632 1 2 cbr 500 ------- 0 1.0 2.0 49 64
r 0.76416 0 1 tcp 1040 ------- 1 0.0 3.0 8 61
+ 0.76416 1 2 tcp 1040 ------- 1 0.0 3.0 8 61
+ 0.765 1 2 cbr 500 ------- 0 1.0 2.0 53 71
r 0.7652 1 2 cbr 500 ------- 0 1.0 2.0 46 58
- 0.7672 1 2 cbr 500 ------- 0 1.0 2.0 50 65
r 0.7692 1 2 cbr 500 ------- 0 1.0 2.0 47 59
+ 0.77 1 2 cbr 500 ------- 0 1.0 2.0 54 72
r 0.77016 1 0 ack 40 ------- 1 3.0 0.0 5 62
+ 0.77016 0 1 tcp 1040 ------- 1 0.0 3.0 11 73
+ 0.77016 0 1 tcp 1040 ------- 1 0.0 3.0 12 74
- 0.7708 0 1 tcp 1040 ------- 1 0.0 3.0 11 73
- 0.7712 1 2 cbr 500 ------- 0 1.0 2.0 51 69
r 0.77216 2 1 ack 40 ------- 1 3.0 0.0 6 66
+ 0.77216 1 0 ack 40 ------- 1 3.0 0.0 6 66
- 0.77216 1 0 ack 40 ------- 1 3.0 0.0 6 66
r 0.77248 0 1 tcp 1040 ------- 1 0.0 3.0 9 67
+ 0.77248 1 2 tcp 1040 ------- 1 0.0 3.0 9 67
r 0.7732 1 2 cbr 500 ------- 0 1.0 2.0 48 63
+ 0.775 1 2 cbr 500 ------- 0 1.0 2.0 55 75
- 0.7752 1 2 tcp 1040 ------- 1 0.0 3.0 7 60
r 0.7772 1 2 cbr 500 ------- 0 1.0 2.0 49 64
- 0.77912 0 1 tcp 1040 ------- 1 0.0 3.0 12 74
+ 0.78 1 2 cbr 500 ------- 0 1.0 2.0 56 76
r 0.7808 0 1 tcp 1040 ------- 1 0.0 3.0 10 68
+ 0.7808 1 2 tcp 1040 ------- 1 0.0 3.0 10 68
r 0.7812 1 2 cbr 500 ------- 0 1.0 2.0 50 65
r 0.78248 1 0 ack 40 ------- 1 3.0 0.0 6 66
+ 0.78248 0 1 tcp 1040 ------- 1 0.0 3.0 13 77
+ 0.78248 0 1 tcp 1040 ------- 1 0.0 3.0 14 78
- 0.78352 1 2 cbr 500 ------- 0 1.0 2.0 52 70
+ 0.785 1 2 cbr 500 ------- 0 1.0 2.0 57 79
r 0.7852 1 2 cbr 500 ------- 0 1.0 2.0 51 69
- 0.78744 0 1 tcp 1040 ------- 1 0.0 3.0 13 77
- 0.78752 1 2 tcp 1040 ------- 1 0.0 3.0 8 61
r 0.78912 0 1 tcp 1040 ------- 1 0.0 3.0 11 73
+ 0.78912 1 2 tcp 1040 ------- 1 0.0 3.0 11 73
+ 0.79 1 2 cbr 500 ------- 0 1.0 2.0 58 80
r 0.79352 1 2 tcp 1040 ------- 1 0.0 3.0 7 60
+ 0.79352 2 3 tcp 1040 ------- 1 0.0 3.0 7 60
- 0.79352 2 3 tcp 1040 ------- 1 0.0 3.0 7 60
+ 0.795 1 2 cbr 500 ------- 0 1.0 2.0 59 81
- 0.79576 0 1 tcp 1040 ------- 1 0.0 3.0 14 78
- 0.79584 1 2 cbr 500 ------- 0 1.0 2.0 53 71
r 0.79744 0 1 tcp 1040 ------- 1 0.0 3.0 12 74
+ 0.79744 1 2 tcp 1040 ------- 1 0.0 3.0 12 74
r 0.79752 1 2 cbr 500 ------- 0 1.0 2.0 52 70
- 0.79984 1 2 cbr 500 ------- 0 1.0 2.0 54 72
+ 0.8 1 2 cbr 500 ------- 0 1.0 2.0 60 82
- 0.80384 1 2 tcp 1040 ------- 1 0.0 3.0 9 67
+ 0.805 1 2 cbr 500 ------- 0 1.0 2.0 61 83
r 0.80576 0 1 tcp 1040 ------- 1 0.0 3.0 13 77
+ 0.80576 1 2 tcp 1040 ------- 1 0.0 3.0 13 77
r 0.80584 1 2 tcp 1040 ------- 1 0.0 3.0 8 61
+ 0.80584 2 3 tcp 1040 ------- 1 0.0 3.0 8 61
- 0.80584 2 3 tcp 1040 ------- 1 0.0 3.0 8 61
r 0.80984 1 2 cbr 500 ------- 0 1.0 2.0 53 71
+ 0.81 1 2 cbr 500 ------- 0 1.0 2.0 62 84
r 0.81184 2 3 tcp 1040 ------- 1 0.0 3.0 7 60
+ 0.81184 3 2 ack 40 ------- 1 3.0 0.0 7 85
- 0.81184 3 2 ack 40 ------- 1 3.0 0.0 7 85
- 0.81216 1 2 cbr 500 ------- 0 1.0 2.0 55 75
r 0.81384 1 2 cbr 500 ------- 0 1.0 2.0 54 72
r 0.81408 0 1 tcp 1040 ------- 1 0.0 3.0 14 78
+ 0.81408 1 2 tcp 1040 ------- 1 0.0 3.0 14 78
+ 0.815 1 2 cbr 500 ------- 0 1.0 2.0 63 86
- 0.81616 1 2 cbr 500 ------- 0 1.0 2.0 56 76
+ 0.82 1 2 cbr 500 ------- 0 1.0 2.0 64 87
- 0.82016 1 2 tcp 1040 ------- 1 0.0 3.0 10 68
r 0.82216 1 2 tcp 1040 ------- 1 0.0 3.0 9 67
+ 0.82216 2 3 tcp 1040 ------- 1 0.0 3.0 9 67
- 0.82216 2 3 tcp 1040 ------- 1 0.0 3.0 9 67
r 0.82216 3 2 ack 40 ------- 1 3.0 0.0 7 85
+ 0.82216 2 1 ack 40 ------- 1 3.0 0.0 7 85
- 0.82216 2 1 ack 40 ------- 1 3.0 0.0 7 85
r 0.82416 2 3 tcp 1040 ------- 1 0.0 3.0 8 61
+ 0.82416 3 2 ack 40 ------- 1 3.0 0.0 8 88
- 0.82416 3 2 ack 40 ------- 1 3.0 0.0 8 88
+ 0.825 1 2 cbr 500 ------- 0 1.0 2.0 65 89
r 0.82616 1 2 cbr 500 ------- 0 1.0 2.0 55 75
- 0.82848 1 2 cbr 500 ------- 0 1.0 2.0 57 79
+ 0.83 1 2 cbr 500 ------- 0 1.0 2.0 66 90
r 0.83016 1 2 cbr 500 ------- 0 1.0 2.0 56 76
r 0.83248 2 1 ack 40 ------- 1 3.0 0.0 7 85
+ 0.83248 1 0 ack 40 ------- 1 3.0 0.0 7 85
- 0.83248 1 0 ack 40 ------- 1 3.0 0.0 7 85
- 0.83248 1 2 tcp 1040 ------- 1 0.0 3.0 11 73
r 0.83448 3 2 ack 40 ------- 1 3.0 0.0 8 88
+ 0.83448 2 1 ack 40 ------- 1 3.0 0.0 8 88
- 0.83448 2 1 ack 40 ------- 1 3.0 0.0 8 88
+ 0.835 1 2 cbr 500 ------- 0 1.0 2.0 67 91
r 0.83848 1 2 tcp 1040 ------- 1 0.0 3.0 10 68
+ 0.83848 2 3 tcp 1040 ------- 1 0.0 3.0 10 68
- 0.83848 2 3 tcp 1040 ------- 1 0.0 3.0 10 68
+ 0.84 1 2 cbr 500 ------- 0 1.0 2.0 68 92
r 0.84048 2 3 tcp 1040 ------- 1 0.0 3.0 9 67
+ 0.84048 3 2 ack 40 ------- 1 3.0 0.0 9 93
- 0.84048 3 2 ack 40 ------- 1 3.0 0.0 9 93
- 0.8408 1 2 cbr 500 ------- 0 1.0 2.0 58 80
r 0.84248 1 2 cbr 500 ------- 0 1.0 2.0 57 79
r 0.8428 1 0 ack 40 ------- 1 3.0 0.0 7 85
+ 0.8428 0 1 tcp 1040 ------- 1 0.0 3.0 15 94
- 0.8428 0 1 tcp 1040 ------- 1 0.0 3.0 15 94
+ 0.8428 0 1 tcp 1040 ------- 1 0.0 3.0 16 95
r 0.8448 2 1 ack 40 ------- 1 3.0 0.0 8 88
+ 0.8448 1 0 ack 40 ------- 1 3.0 0.0 8 88
- 0.8448 1 0 ack 40 ------- 1 3.0 0.0 8 88
- 0.8448 1 2 cbr 500 ------- 0 1.0 2.0 59 81
+ 0.845 1 2 cbr 500 ------- 0 1.0 2.0 69 96
- 0.8488 1 2 tcp 1040 ------- 1 0.0 3.0 12 74
+ 0.85 1 2 cbr 500 ------- 0 1.0 2.0 70 97
r 0.8508 1 2 tcp 1040 ------- 1 0.0 3.0 11 73
+ 0.8508 2 3 tcp 1040 ------- 1 0.0 3.0 11 73
- 0.8508 2 3 tcp 1040 ------- 1 0.0 3.0 11 73
r 0.8508 3 2 ack 40 ------- 1 3.0 0.0 9 93
+ 0.8508 2 1 ack 40 ------- 1 3.0 0.0 9 93
- 0.8508 2 1 ack 40 ------- 1 3.0 0.0 9 93
- 0.85112 0 1 tcp 1040 ------- 1 0.0 3.0 16 95
r 0.8548 1 2 cbr 500 ------- 0 1.0 2.0 58 80
+ 0.855 1 2 cbr 500 ------- 0 1.0 2.0 71 98
r 0.85512 1 0 ack 40 ------- 1 3.0 0.0 8 88
+ 0.85512 0 1 tcp 1040 ------- 1 0.0 3.0 17 99
+ 0.85512 0 1 tcp 1040 ------- 1 0.0 3.0 18 100
r 0.8568 2 3 tcp 1040 ------- 1 0.0 3.0 10 68
+ 0.8568 3 2 ack 40 ------- 1 3.0 0.0 10 101
- 0.8568 3 2 ack 40 ------- 1 3.0 0.0 10 101
- 0.85712 1 2 cbr 500 ------- 0 1.0 2.0 60 82
r 0.8588 1 2 cbr 500 ------- 0 1.0 2.0 59 81
- 0.85944 0 1 tcp 1040 ------- 1 0.0 3.0 17 99
+ 0.86 1 2 cbr 500 ------- 0 1.0 2.0 72 102
r 0.86112 0 1 tcp 1040 ------- 1 0.0 3.0 15 94
+ 0.86112 1 2 tcp 1040 ------- 1 0.0 3.0 15 94
r 0.86112 2 1 ack 40 ------- 1 3.0 0.0 9 93
+ 0.86112 1 0 ack 40 ------- 1 3.0 0.0 9 93
- 0.86112 1 0 ack 40 ------- 1 3.0 0.0 9 93
- 0.86112 1 2 cbr 500 ------- 0 1.0 2.0 61 83
+ 0.865 1 2 cbr 500 ------- 0 1.0 2.0 73 103
- 0.86512 1 2 tcp 1040 ------- 1 0.0 3.0 13 77
r 0.86712 1 2 tcp 1040 ------- 1 0.0 3.0 12 74
+ 0.86712 2 3 tcp 1040 ------- 1 0.0 3.0 12 74
- 0.86712 2 3 tcp 1040 ------- 1 0.0 3.0 12 74
r 0.86712 3 2 ack 40 ------- 1 3.0 0.0 10 101
+ 0.86712 2 1 ack 40 ------- 1 3.0 0.0 10 101
- 0.86712 2 1 ack 40 ------- 1 3.0 0.0 10 101
- 0.86776 0 1 tcp 1040 ------- 1 0.0 3.0 18 100
r 0.86912 2 3 tcp 1040 ------- 1 0.0 3.0 11 73
+ 0.86912 3 2 ack 40 ------- 1 3.0 0.0 11 104
- 0.86912 3 2 ack 40 ------- 1 3.0 0.0 11 104
r 0.86944 0 1 tcp 1040 ------- 1 0.0 3.0 16 95
+ 0.86944 1 2 tcp 1040 ------- 1 0.0 3.0 16 95
+ 0.87 1 2 cbr 500 ------- 0 1.0 2.0 74 105
r 0.87112 1 2 cbr 500 ------- 0 1.0 2.0 60 82
r 0.87144 1 0 ack 40 ------- 1 3.0 0.0 9 93
+ 0.87144 0 1 tcp 1040 ------- 1 0.0 3.0 19 106
+ 0.87144 0 1 tcp 1040 ------- 1 0.0 3.0 20 107
- 0.87344 1 2 cbr 500 ------- 0 1.0 2.0 62 84
+ 0.875 1 2 cbr 500 ------- 0 1.0 2.0 75 108
r 0.87512 1 2 cbr 500 ------- 0 1.0 2.0 61 83
- 0.87608 0 1 tcp 1040 ------- 1 0.0 3.0 19 106
r 0.87744 2 1 ack 40 ------- 1 3.0 0.0 10 101
+ 0.87744 1 0 ack 40 ------- 1 3.0 0.0 10 101
- 0.87744 1 0 ack 40 ------- 1 3.0 0.0 10 101
- 0.87744 1 2 tcp 1040 ------- 1 0.0 3.0 14 78
r 0.87776 0 1 tcp 1040 ------- 1 0.0 3.0 17 99
+ 0.87776 1 2 tcp 1040 ------- 1 0.0 3.0 17 99
r 0.87944 3 2 ack 40 ------- 1 3.0 0.0 11 104
+ 0.87944 2 1 ack 40 ------- 1 3.0 0.0 11 104
- 0.87944 2 1 ack 40 ------- 1 3.0 0.0 11 104
+ 0.88 1 2 cbr 500 ------- 0 1.0 2.0 76 109
r 0.88344 1 2 tcp 1040 ------- 1 0.0 3.0 13 77
+ 0.88344 2 3 tcp 1040 ------- 1 0.0 3.0 13 77
- 0.88344 2 3 tcp 1040 ------- 1 0.0 3.0 13 77
- 0.8844 0 1 tcp 1040 ------- 1 0.0 3.0 20 107
+ 0.885 1 2 cbr 500 ------- 0 1.0 2.0 77 110
r 0.88544 2 3 tcp 1040 ------- 1 0.0 3.0 12 74
+ 0.88544 3 2 ack 40 ------- 1 3.0 0.0 12 111
- 0.88544 3 2 ack 40 ------- 1 3.0 0.0 12 111
- 0.88576 1 2 cbr 500 ------- 0 1.0 2.0 63 86
r 0.88608 0 1 tcp 1040 ------- 1 0.0 3.0 18 100
+ 0.88608 1 2 tcp 1040 ------- 1 0.0 3.0 18 100
r 0.88744 1 2 cbr 500 ------- 0 1.0 2.0 62 84
r 0.88776 1 0 ack 40 ------- 1 3.0 0.0 10 101
+ 0.88776 0 1 tcp 1040 ------- 1 0.0 3.0 21 112
+ 0.88776 0 1 tcp 1040 ------- 1 0.0 3.0 22 113
r 0.88976 2 1 ack 40 ------- 1 3.0 0.0 11 104
+ 0.88976 1 0 ack 40 ------- 1 3.0 0.0 11 104
- 0.88976 1 0 ack 40 ------- 1 3.0 0.0 11 104
- 0.88976 1 2 cbr 500 ------- 0 1.0 2.0 64 87
+ 0.89 1 2 cbr 500 ------- 0 1.0 2.0 78 114
- 0.89272 0 1 tcp 1040 ------- 1 0.0 3.0 21 112
- 0.89376 1 2 cbr 500 ------- 0 1.0 2.0 65 89
r 0.8944 0 1 tcp 1040 ------- 1 0.0 3.0 19 106
+ 0.8944 1 2 tcp 1040 ------- 1 0.0 3.0 19 106
+ 0.895 1 2 cbr 500 ------- 0 1.0 2.0 79 115
r 0.89576 1 2 tcp 1040 ------- 1 0.0 3.0 14 78
+ 0.89576 2 3 tcp 1040 ------- 1 0.0 3.0 14 78
- 0.89576 2 3 tcp 1040 ------- 1 0.0 3.0 14 78
r 0.89576 3 2 ack 40 ------- 1 3.0 0.0 12 111
+ 0.89576 2 1 ack 40 ------- 1 3.0 0.0 12 111
- 0.89576 2 1 ack 40 ------- 1 3.0 0.0 12 111
- 0.89776 1 2 cbr 500 ------- 0 1.0 2.0 66 90
r 0.89976 1 2 cbr 500 ------- 0 1.0 2.0 63 86
+ 0.9 1 2 cbr 500 ------- 0 1.0 2.0 80 116
r 0.90008 1 0 ack 40 ------- 1 3.0 0.0 11 104
+ 0.90008 0 1 tcp 1040 ------- 1 0.0 3.0 23 117
+ 0.90008 0 1 tcp 1040 ------- 1 0.0 3.0 24 118
- 0.90104 0 1 tcp 1040 ------- 1 0.0 3.0 22 113
r 0.90176 2 3 tcp 1040 ------- 1 0.0 3.0 13 77
+ 0.90176 3 2 ack 40 ------- 1 3.0 0.0 13 119
- 0.90176 3 2 ack 40 ------- 1 3.0 0.0 13 119
- 0.90176 1 2 cbr 500 ------- 0 1.0 2.0 67 91
r 0.90272 0 1 tcp 1040 ------- 1 0.0 3.0 20 107
+ 0.90272 1 2 tcp 1040 ------- 1 0.0 3.0 20 107
r 0.90376 1 2 cbr 500 ------- 0 1.0 2.0 64 87
+ 0.905 1 2 cbr 500 ------- 0 1.0 2.0 81 120
- 0.90576 1 2 cbr 500 ------- 0 1.0 2.0 68 92
r 0.90608 2 1 ack 40 ------- 1 3.0 0.0 12 111
+ 0.90608 1 0 ack 40 ------- 1 3.0 0.0 12 111
- 0.90608 1 0 ack 40 ------- 1 3.0 0.0 12 111
r 0.90776 1 2 cbr 500 ------- 0 1.0 2.0 65 89
- 0.90936 0 1 tcp 1040 ------- 1 0.0 3.0 23 117
- 0.90976 1 2 cbr 500 ------- 0 1.0 2.0 69 96
+ 0.91 1 2 cbr 500 ------- 0 1.0 2.0 82 121
r 0.91104 0 1 tcp 1040 ------- 1 0.0 3.0 21 112
+ 0.91104 1 2 tcp 1040 ------- 1 0.0 3.0 21 112
r 0.91176 1 2 cbr 500 ------- 0 1.0 2.0 66 90
r 0.91208 3 2 ack 40 ------- 1 3.0 0.0 13 119
+ 0.91208 2 1 ack 40 ------- 1 3.0 0.0 13 119
- 0.91208 2 1 ack 40 ------- 1 3.0 0.0 13 119
- 0.91376 1 2 cbr 500 ------- 0 1.0 2.0 70 97
r 0.91408 2 3 tcp 1040 ------- 1 0.0 3.0 14 78
+ 0.91408 3 2 ack 40 ------- 1 3.0 0.0 14 122
- 0.91408 3 2 ack 40 ------- 1 3.0 0.0 14 122
+ 0.915 1 2 cbr 500 ------- 0 1.0 2.0 83 123
r 0.91576 1 2 cbr 500 ------- 0 1.0 2.0 67 91
r 0.9164 1 0 ack 40 ------- 1 3.0 0.0 12 111
+ 0.9164 0 1 tcp 1040 ------- 1 0.0 3.0 25 124
+ 0.9164 0 1 tcp 1040 ------- 1 0.0 3.0 26 125
- 0.91768 0 1 tcp 1040 ------- 1 0.0 3.0 24 118
- 0.91776 1 2 cbr 500 ------- 0 1.0 2.0 71 98
r 0.91936 0 1 tcp 1040 ------- 1 0.0 3.0 22 113
+ 0.91936 1 2 tcp 1040 ------- 1 0.0 3.0 22 113
r 0.91976 1 2 cbr 500 ------- 0 1.0 2.0 68 92
+ 0.92 1 2 cbr 500 ------- 0 1.0 2.0 84 126
- 0.92176 1 2 cbr 500 ------- 0 1.0 2.0 72 102
r 0.9224 2 1 ack 40 ------- 1 3.0 0.0 13 119
+ 0.9224 1 0 ack 40 ------- 1 3.0 0.0 13 119
- 0.9224 1 0 ack 40 ------- 1 3.0 0.0 13 119
r 0.92376 1 2 cbr 500 ------- 0 1.0 2.0 69 96
r 0.9244 3 2 ack 40 ------- 1 3.0 0.0 14 122
+ 0.9244 2 1 ack 40 ------- 1 3.0 0.0 14 122
- 0.9244 2 1 ack 40 ------- 1 3.0 0.0 14 122
+ 0.925 1 2 cbr 500 ------- 0 1.0 2.0 85 127
- 0.92576 1 2 tcp 1040 ------- 1 0.0 3.0 15 94
- 0.926 0 1 tcp 1040 ------- 1 0.0 3.0 25 124
r 0.92768 0 1 tcp 1040 ------- 1 0.0 3.0 23 117
+ 0.92768 1 2 tcp 1040 ------- 1 0.0 3.0 23 117
r 0.92776 1 2 cbr 500 ------- 0 1.0 2.0 70 97
+ 0.93 1 2 cbr 500 ------- 0 1.0 2.0 86 128
r 0.93176 1 2 cbr 500 ------- 0 1.0 2.0 71 98
r 0.93272 1 0 ack 40 ------- 1 3.0 0.0 13 119
+ 0.93272 0 1 tcp 1040 ------- 1 0.0 3.0 27 129
+ 0.93272 0 1 tcp 1040 ------- 1 0.0 3.0 28 130
- 0.93408 1 2 cbr 500 ------- 0 1.0 2.0 73 103
- 0.93432 0 1 tcp 1040 ------- 1 0.0 3.0 26 125
r 0.93472 2 1 ack 40 ------- 1 3.0 0.0 14 122
+ 0.93472 1 0 ack 40 ------- 1 3.0 0.0 14 122
- 0.93472 1 0 ack 40 ------- 1 3.0 0.0 14 122
+ 0.935 1 2 cbr 500 ------- 0 1.0 2.0 87 131
r 0.93576 1 2 cbr 500 ------- 0 1.0 2.0 72 102
r 0.936 0 1 tcp 1040 ------- 1 0.0 3.0 24 118
+ 0.936 1 2 tcp 1040 ------- 1 0.0 3.0 24 118
- 0.93808 1 2 tcp 1040 ------- 1 0.0 3.0 16 95
+ 0.94 1 2 cbr 500 ------- 0 1.0 2.0 88 132
- 0.94264 0 1 tcp 1040 ------- 1 0.0 3.0 27 129
r 0.94408 1 2 tcp 1040 ------- 1 0.0 3.0 15 94
+ 0.94408 2 3 tcp 1040 ------- 1 0.0 3.0 15 94
- 0.94408 2 3 tcp 1040 ------- 1 0.0 3.0 15 94
r 0.94432 0 1 tcp 1040 ------- 1 0.0 3.0 25 124
+ 0.94432 1 2 tcp 1040 ------- 1 0.0 3.0 25 124
+ 0.945 1 2 cbr 500 ------- 0 1.0 2.0 89 133
r 0.94504 1 0 ack 40 ------- 1 3.0 0.0 14 122
+ 0.94504 0 1 tcp 1040 ------- 1 0.0 3.0 29 134
+ 0.94504 0 1 tcp 1040 ------- 1 0.0 3.0 30 135
- 0.9464 1 2 cbr 500 ------- 0 1.0 2.0 74 105
r 0.94808 1 2 cbr 500 ------- 0 1.0 2.0 73 103
+ 0.95 1 2 cbr 500 ------- 0 1.0 2.0 90 136
- 0.9504 1 2 cbr 500 ------- 0 1.0 2.0 75 108
- 0.95096 0 1 tcp 1040 ------- 1 0.0 3.0 28 130
r 0.95264 0 1 tcp 1040 ------- 1 0.0 3.0 26 125
+ 0.95264 1 2 tcp 1040 ------- 1 0.0 3.0 26 125
- 0.9544 1 2 tcp 1040 ------- 1 0.0 3.0 17 99
+ 0.955 1 2 cbr 500 ------- 0 1.0 2.0 91 137
r 0.9564 1 2 tcp 1040 ------- 1 0.0 3.0 16 95
+ 0.9564 2 3 tcp 1040 ------- 1 0.0 3.0 16 95
- 0.9564 2 3 tcp 1040 ------- 1 0.0 3.0 16 95
- 0.95928 0 1 tcp 1040 ------- 1 0.0 3.0 29 134
+ 0.96 1 2 cbr 500 ------- 0 1.0 2.0 92 138
r 0.9604 1 2 cbr 500 ------- 0 1.0 2.0 74 105
r 0.96096 0 1 tcp 1040 ------- 1 0.0 3.0 27 129
+ 0.96096 1 2 tcp 1040 ------- 1 0.0 3.0 27 129
r 0.9624 2 3 tcp 1040 ------- 1 0.0 3.0 15 94
+ 0.9624 3 2 ack 40 ------- 1 3.0 0.0 15 139
- 0.9624 3 2 ack 40 ------- 1 3.0 0.0 15 139
- 0.96272 1 2 cbr 500 ------- 0 1.0 2.0 76 109
r 0.9644 1 2 cbr 500 ------- 0 1.0 2.0 75 108
+ 0.965 1 2 cbr 500 ------- 0 1.0 2.0 93 140
- 0.96672 1 2 cbr 500 ------- 0 1.0 2.0 77 110
- 0.9676 0 1 tcp 1040 ------- 1 0.0 3.0 30 135
r 0.96928 0 1 tcp 1040 ------- 1 0.0 3.0 28 130
+ 0.96928 1 2 tcp 1040 ------- 1 0.0 3.0 28 130
+ 0.97 1 2 cbr 500 ------- 0 1.0 2.0 94 141
- 0.97072 1 2 tcp 1040 ------- 1 0.0 3.0 18 100
r 0.97272 1 2 tcp 1040 ------- 1 0.0 3.0 17 99
+ 0.97272 2 3 tcp 1040 ------- 1 0.0 3.0 17 99
- 0.97272 2 3 tcp 1040 ------- 1 0.0 3.0 17 99
r 0.97272 3 2 ack 40 ------- 1 3.0 0.0 15 139
+ 0.97272 2 1 ack 40 ------- 1 3.0 0.0 15 139
- 0.97272 2 1 ack 40 ------- 1 3.0 0.0 15 139
r 0.97472 2 3 tcp 1040 ------- 1 0.0 3.0 16 95
+ 0.97472 3 2 ack 40 ------- 1 3.0 0.0 16 142
- 0.97472 3 2 ack 40 ------- 1 3.0 0.0 16 142
+ 0.975 1 2 cbr 500 ------- 0 1.0 2.0 95 143
r 0.97672 1 2 cbr 500 ------- 0 1.0 2.0 76 109
r 0.9776 0 1 tcp 1040 ------- 1 0.0 3.0 29 134
+ 0.9776 1 2 tcp 1040 ------- 1 0.0 3.0 29 134
- 0.97904 1 2 cbr 500 ------- 0 1.0 2.0 78 114
+ 0.98 1 2 cbr 500 ------- 0 1.0 2.0 96 144
r 0.98072 1 2 cbr 500 ------- 0 1.0 2.0 77 110
r 0.98304 2 1 ack 40 ------- 1 3.0 0.0 15 139
+ 0.98304 1 0 ack 40 ------- 1 3.0 0.0 15 139
- 0.98304 1 0 ack 40 ------- 1 3.0 0.0 15 139
- 0.98304 1 2 tcp 1040 ------- 1 0.0 3.0 19 106
+ 0.985 1 2 cbr 500 ------- 0 1.0 2.0 97 145
r 0.98504 3 2 ack 40 ------- 1 3.0 0.0 16 142
+ 0.98504 2 1 ack 40 ------- 1 3.0 0.0 16 142
- 0.98504 2 1 ack 40 ------- 1 3.0 0.0 16 142
r 0.98592 0 1 tcp 1040 ------- 1 0.0 3.0 30 135
+ 0.98592 1 2 tcp 1040 ------- 1 0.0 3.0 30 135
r 0.98904 1 2 tcp 1040 ------- 1 0.0 3.0 18 100
+ 0.98904 2 3 tcp 1040 ------- 1 0.0 3.0 18 100
- 0.98904 2 3 tcp 1040 ------- 1 0.0 3.0 18 100
+ 0.99 1 2 cbr 500 ------- 0 1.0 2.0 98 146
r 0.99104 2 3 tcp 1040 ------- 1 0.0 3.0 17 99
+ 0.99104 3 2 ack 40 ------- 1 3.0 0.0 17 147
- 0.99104 3 2 ack 40 ------- 1 3.0 0.0 17 147
- 0.99136 1 2 cbr 500 ------- 0 1.0 2.0 79 115
r 0.99304 1 2 cbr 500 ------- 0 1.0 2.0 78 114
r 0.99336 1 0 ack 40 ------- 1 3.0 0.0 15 139
+ 0.99336 0 1 tcp 1040 ------- 1 0.0 3.0 31 148
- 0.99336 0 1 tcp 1040 ------- 1 0.0 3.0 31 148
+ 0.99336 0 1 tcp 1040 ------- 1 0.0 3.0 32 149
+ 0.995 1 2 cbr 500 ------- 0 1.0 2.0 99 150
r 0.99536 2 1 ack 40 ------- 1 3.0 0.0 16 142
+ 0.99536 1 0 ack 40 ------- 1 3.0 0.0 16 142
- 0.99536 1 0 ack 40 ------- 1 3.0 0.0 16 142
- 0.99536 1 2 cbr 500 ------- 0 1.0 2.0 80 116
- 0.99936 1 2 tcp 1040 ------- 1 0.0 3.0 20 107
+ 1 1 2 cbr 500 ------- 0 1.0 2.0 100 151
r 1.00136 1 2 tcp 1040 ------- 1 0.0 3.0 19 106
+ 1.00136 2 3 tcp 1040 ------- 1 0.0 3.0 19 106
- 1.00136 2 3 tcp 1040 ------- 1 0.0 3.0 19 106
r 1.00136 3 2 ack 40 ------- 1 3.0 0.0 17 147
+ 1.00136 2 1 ack 40 ------- 1 3.0 0.0 17 147
- 1.00136 2 1 ack 40 ------- 1 3.0 0.0 17 147
- 1.00168 0 1 tcp 1040 ------- 1 0.0 3.0 32 149
+ 1.005 1 2 cbr 500 ------- 0 1.0 2.0 101 152
r 1.00536 1 2 cbr 500 ------- 0 1.0 2.0 79 115
r 1.00568 1 0 ack 40 ------- 1 3.0 0.0 16 142
+ 1.00568 0 1 tcp 1040 ------- 1 0.0 3.0 33 153
+ 1.00568 0 1 tcp 1040 ------- 1 0.0 3.0 34 154
r 1.00736 2 3 tcp 1040 ------- 1 0.0 3.0 18 100
+ 1.00736 3 2 ack 40 ------- 1 3.0 0.0 18 155
- 1.00736 3 2 ack 40 ------- 1 3.0 0.0 18 155
- 1.00768 1 2 cbr 500 ------- 0 1.0 2.0 81 120
r 1.00936 1 2 cbr 500 ------- 0 1.0 2.0 80 116
- 1.01 0 1 tcp 1040 ------- 1 0.0 3.0 33 153
+ 1.01 1 2 cbr 500 ------- 0 1.0 2.0 102 156
r 1.01168 0 1 tcp 1040 ------- 1 0.0 3.0 31 148
+ 1.01168 1 2 tcp 1040 ------- 1 0.0 3.0 31 148
- 1.01168 1 2 cbr 500 ------- 0 1.0 2.0 82 121
r 1.01168 2 1 ack 40 ------- 1 3.0 0.0 17 147
+ 1.01168 1 0 ack 40 ------- 1 3.0 0.0 17 147