V -t * -v 1.0a5 -a 0
A -t * -n 1 -p 0 -o 0x7fffffff -c 30 -a 1
A -t * -h 1 -m 1073741823 -s 0
c -t * -i 1 -n Blue
c -t * -i 2 -n Red
c -t * -i 3 -n Green
n -t * -a 4 -s 4 -S UP -v circle -c black -i black
n -t * -a 0 -s 0 -S UP -v circle -c black -i black
n -t * -a 5 -s 5 -S UP -v circle -c black -i black
n -t * -a 1 -s 1 -S UP -v circle -c black -i black
n -t * -a 2 -s 2 -S UP -v circle -c black -i black
n -t * -a 3 -s 3 -S UP -v circle -c black -i black
l -t * -s 0 -d 1 -S UP -r 10000000 -D 0.01 -c black -o right-down
l -t * -s 4 -d 1 -S UP -r 10000000 -D 0.01 -c black -o right-up
l -t * -s 1 -d 2 -S UP -r 1000000 -D 0.01 -c black -o right
l -t * -s 2 -d 3 -S UP -r 10000000 -D 0.01 -c black -o right-up
l -t * -s 2 -d 5 -S UP -r 10000000 -D 0.01 -c black -o right-down
+ -t 0.5 -s 0 -d 1 -p tcp -e 40 -c 1 -i 0 -a 1 -x {0.0 3.0 0 ------- null}
- -t 0.5 -s 0 -d 1 -p tcp -e 40 -c 1 -i 0 -a 1 -x {0.0 3.0 0 ------- null}
h -t 0.5 -s 0 -d 1 -p tcp -e 40 -c 1 -i 0 -a 1 -x {0.0 3.0 -1 ------- null}
+ -t 0.5 -s 4 -d 1 -p tcp -e 40 -c 2 -i 1 -a 2 -x {4.0 5.0 0 ------- null}
- -t 0.5 -s 4 -d 1 -p tcp -e 40 -c 2 -i 1 -a 2 -x {4.0 5.0 0 ------- null}
h -t 0.5 -s 4 -d 1 -p tcp -e 40 -c 2 -i 1 -a 2 -x {4.0 5.0 -1 ------- null}
r -t 0.510032 -s 0 -d 1 -p tcp -e 40 -c 1 -i 0 -a 1 -x {0.0 3.0 0 ------- null}
+ -t 0.510032 -s 1 -d 2 -p tcp -e 40 -c 1 -i 0 -a 1 -x {0.0 3.0 0 ------- null}
- -t 0.510032 -s 1 -d 2 -p tcp -e 40 -c 1 -i 0 -a 1 -x {0.0 3.0 0 ------- null}
h -t 0.510032 -s 1 -d 2 -p tcp -e 40 -c 1 -i 0 -a 1 -x {0.0 3.0 -1 ------- null}
r -t 0.510032 -s 4 -d 1 -p tcp -e 40 -c 2 -i 1 -a 2 -x {4.0 5.0 0 ------- null}
+ -t 0.510032 -s 1 -d 2 -p tcp -e 40 -c 2 -i 1 -a 2 -x {4.0 5.0 0 ------- null}
- -t 0.510352 -s 1 -d 2 -p tcp -e 40 -c 2 -i 1 -a 2 -x {4.0 5.0 0 ------- null}
h -t 0.510352 -s 1 -d 2 -p tcp -e 40 -c 2 -i 1 -a 2 -x {4.0 5.0 -1 ------- null}
r -t 0.520352 -s 1 -d 2 -p tcp -e 40 -c 1 -i 0 -a 1 -x {0.0 3.0 0 ------- null}
+ -t 0.520352 -s 2 -d 3 -p tcp -e 40 -c 1 -i 0 -a 1 -x {0.0 3.0 0 ------- null}
- -t 0.520352 -s 2 -d 3 -p tcp -e 40 -c 1 -i 0 -a 1 -x {0.0 3.0 0 ------- null}
h -t 0.520352 -s 2 -d 3 -p tcp -e 40 -c 1 -i 0 -a 1 -x {0.0 3.0 -1 ------- null}
r -t 0.520672 -s 1 -d 2 -p tcp -e 40 -c 2 -i 1 -a 2 -x {4.0 5.0 0 ------- null}
+ -t 0.520672 -s 2 -d 5 -p tcp -e 40 -c 2 -i 1 -a 2 -x {4.0 5.0 0 ------- null}
- -t 0.520672 -s 2 -d 5 -p tcp -e 40 -c 2 -i 1 -a 2 -x {4.0 5.0 0 ------- null}
h -t 0.520672 -s 2 -d 5 -p tcp -e 40 -c 2 -i 1 -a 2 -x {4.0 5.0 -1 ------- null}
r -t 0.530384 -s 2 -d 3 -p tcp -e 40 -c 1 -i 0 -a 1 -x {0.0 3.0 0 ------- null}
+ -t 0.530384 -s 3 -d 2 -p ack -e 40 -c 1 -i 2 -a 1 -x {3.0 0.0 0 ------- null}
- -t 0.530384 -s 3 -d 2 -p ack -e 40 -c 1 -i 2 -a 1 -x {3.0 0.0 0 ------- null}
h -t 0.530384 -s 3 -d 2 -p ack -e 40 -c 1 -i 2 -a 1 -x {3.0 0.0 -1 ------- null}
r -t 0.530704 -s 2 -d 5 -p tcp -e 40 -c 2 -i 1 -a 2 -x {4.0 5.0 0 ------- null}
+ -t 0.530704 -s 5 -d 2 -p ack -e 40 -c 2 -i 3 -a 2 -x {5.0 4.0 0 ------- null}
- -t 0.530704 -s 5 -d 2 -p ack -e 40 -c 2 -i 3 -a 2 -x {5.0 4.0 0 ------- null}
h -t 0.530704 -s 5 -d 2 -p ack -e 40 -c 2 -i 3 -a 2 -x {5.0 4.0 -1 ------- null}
r -t 0.540416 -s 3 -d 2 -p ack -e 40 -c 1 -i 2 -a 1 -x {3.0 0.0 0 ------- null}
+ -t 0.540416 -s 2 -d 1 -p ack -e 40 -c 1 -i 2 -a 1 -x {3.0 0.0 0 ------- null}
- -t 0.540416 -s 2 -d 1 -p ack -e 40 -c 1 -i 2 -a 1 -x {3.0 0.0 0 ------- null}
h -t 0.540416 -s 2 -d 1 -p ack -e 40 -c 1 -i 2 -a 1 -x {3.0 0.0 -1 ------- null}
r -t 0.540736 -s 5 -d 2 -p ack -e 40 -c 2 -i 3 -a 2 -x {5.0 4.0 0 ------- null}
+ -t 0.540736 -s 2 -d 1 -p ack -e 40 -c 2 -i 3 -a 2 -x {5.0 4.0 0 ------- null}
- -t 0.540736 -s 2 -d 1 -p ack -e 40 -c 2 -i 3 -a 2 -x {5.0 4.0 0 ------- null}
h -t 0.540736 -s 2 -d 1 -p ack -e 40 -c 2 -i 3 -a 2 -x {5.0 4.0 -1 ------- null}
r -t 0.550736 -s 2 -d 1 -p ack -e 40 -c 1 -i 2 -a 1 -x {3.0 0.0 0 ------- null}
+ -t 0.550736 -s 1 -d 0 -p ack -e 40 -c 1 -i 2 -a 1 -x {3.0 0.0 0 ------- null}
- -t 0.550736 -s 1 -d 0 -p ack -e 40 -c 1 -i 2 -a 1 -x {3.0 0.0 0 ------- null}
h -t 0.550736 -s 1 -d 0 -p ack -e 40 -c 1 -i 2 -a 1 -x {3.0 0.0 -1 ------- null}
r -t 0.551056 -s 2 -d 1 -p ack -e 40 -c 2 -i 3 -a 2 -x {5.0 4.0 0 ------- null}
+ -t 0.551056 -s 1 -d 4 -p ack -e 40 -c 2 -i 3 -a 2 -x {5.0 4.0 0 ------- null}
- -t 0.551056 -s 1 -d 4 -p ack -e 40 -c 2 -i 3 -a 2 -x {5.0 4.0 0 ------- null}
h -t 0.551056 -s 1 -d 4 -p ack -e 40 -c 2 -i 3 -a 2 -x {5.0 4.0 -1 ------- null}
r -t 0.560768 -s 1 -d 0 -p ack -e 40 -c 1 -i 2 -a 1 -x {3.0 0.0 0 ------- null}
+ -t 0.560768 -s 0 -d 1 -p tcp -e 1040 -c 1 -i 4 -a 1 -x {0.0 3.0 1 ------- null}
- -t 0.560768 -s 0 -d 1 -p tcp -e 1040 -c 1 -i 4 -a 1 -x {0.0 3.0 1 ------- null}
h -t 0.560768 -s 0 -d 1 -p tcp -e 1040 -c 1 -i 4 -a 1 -x {0.0 3.0 -1 ------- null}
+ -t 0.560768 -s 0 -d 1 -p tcp -e 1040 -c 1 -i 5 -a 1 -x {0.0 3.0 2 ------- null}
r -t 0.561088 -s 1 -d 4 -p ack -e 40 -c 2 -i 3 -a 2 -x {5.0 4.0 0 ------- null}
+ -t 0.561088 -s 4 -d 1 -p tcp -e 1040 -c 2 -i 6 -a 2 -x {4.0 5.0 1 ------- null}
- -t 0.561088 -s 4 -d 1 -p tcp -e 1040 -c 2 -i 6 -a 2 -x {4.0 5.0 1 ------- null}
h -t 0.561088 -s 4 -d 1 -p tcp -e 1040 -c 2 -i 6 -a 2 -x {4.0 5.0 -1 ------- null}
+ -t 0.561088 -s 4 -d 1 -p tcp -e 1040 -c 2 -i 7 -a 2 -x {4.0 5.0 2 ------- null}
- -t 0.5616 -s 0 -d 1 -p tcp -e 1040 -c 1 -i 5 -a 1 -x {0.0 3.0 2 ------- null}
h -t 0.5616 -s 0 -d 1 -p tcp -e 1040 -c 1 -i 5 -a 1 -x {0.0 3.0 -1 ------- null}
- -t 0.56192 -s 4 -d 1 -p tcp -e 1040 -c 2 -i 7 -a 2 -x {4.0 5.0 2 ------- null}
h -t 0.56192 -s 4 -d 1 -p tcp -e 1040 -c 2 -i 7 -a 2 -x {4.0 5.0 -1 ------- null}
r -t 0.5716 -s 0 -d 1 -p tcp -e 1040 -c 1 -i 4 -a 1 -x {0.0 3.0 1 ------- null}
+ -t 0.5716 -s 1 -d 2 -p tcp -e 1040 -c 1 -i 4 -a 1 -x {0.0 3.0 1 ------- null}
- -t 0.5716 -s 1 -d 2 -p tcp -e 1040 -c 1 -i 4 -a 1 -x {0.0 3.0 1 ------- null}
h -t 0.5716 -s 1 -d 2 -p tcp -e 1040 -c 1 -i 4 -a 1 -x {0.0 3.0 -1 ------- null}
r -t 0.57192 -s 4 -d 1 -p tcp -e 1040 -c 2 -i 6 -a 2 -x {4.0 5.0 1 ------- null}
+ -t 0.57192 -s 1 -d 2 -p tcp -e 1040 -c 2 -i 6 -a 2 -x {4.0 5.0 1 ------- null}
r -t 0.572432 -s 0 -d 1 -p tcp -e 1040 -c 1 -i 5 -a 1 -x {0.0 3.0 2 ------- null}
+ -t 0.572432 -s 1 -d 2 -p tcp -e 1040 -c 1 -i 5 -a 1 -x {0.0 3.0 2 ------- null}
r -t 0.572752 -s 4 -d 1 -p tcp -e 1040 -c 2 -i 7 -a 2 -x {4.0 5.0 2 ------- null}
+ -t 0.572752 -s 1 -d 2 -p tcp -e 1040 -c 2 -i 7 -a 2 -x {4.0 5.0 2 ------- null}
- -t 0.57992 -s 1 -d 2 -p tcp -e 1040 -c 2 -i 6 -a 2 -x {4.0 5.0 1 ------- null}
h -t 0.57992 -s 1 -d 2 -p tcp -e 1040 -c 2 -i 6 -a 2 -x {4.0 5.0 -1 ------- null}
- -t 0.58824 -s 1 -d 2 -p tcp -e 1040 -c 1 -i 5 -a 1 -x {0.0 3.0 2 ------- null}
h -t 0.58824 -s 1 -d 2 -p tcp -e 1040 -c 1 -i 5 -a 1 -x {0.0 3.0 -1 ------- null}
r -t 0.58992 -s 1 -d 2 -p tcp -e 1040 -c 1 -i 4 -a 1 -x {0.0 3.0 1 ------- null}
+ -t 0.58992 -s 2 -d 3 -p tcp -e 1040 -c 1 -i 4 -a 1 -x {0.0 3.0 1 ------- null}
- -t 0.58992 -s 2 -d 3 -p tcp -e 1040 -c 1 -i 4 -a 1 -x {0.0 3.0 1 ------- null}
h -t 0.58992 -s 2 -d 3 -p tcp -e 1040 -c 1 -i 4 -a 1 -x {0.0 3.0 -1 ------- null}
- -t 0.59656 -s 1 -d 2 -p tcp -e 1040 -c 2 -i 7 -a 2 -x {4.0 5.0 2 ------- null}
h -t 0.59656 -s 1 -d 2 -p tcp -e 1040 -c 2 -i 7 -a 2 -x {4.0 5.0 -1 ------- null}
r -t 0.59824 -s 1 -d 2 -p tcp -e 1040 -c 2 -i 6 -a 2 -x {4.0 5.0 1 ------- null}
+ -t 0.59824 -s 2 -d 5 -p tcp -e 1040 -c 2 -i 6 -a 2 -x {4.0 5.0 1 ------- null}
- -t 0.59824 -s 2 -d 5 -p tcp -e 1040 -c 2 -i 6 -a 2 -x {4.0 5.0 1 ------- null}
h -t 0.59824 -s 2 -d 5 -p tcp -e 1040 -c 2 -i 6 -a 2 -x {4.0 5.0 -1 ------- null}
r -t 0.600752 -s 2 -d 3 -p tcp -e 1040 -c 1 -i 4 -a 1 -x {0.0 3.0 1 ------- null}
+ -t 0.600752 -s 3 -d 2 -p ack -e 40 -c 1 -i 8 -a 1 -x {3.0 0.0 1 ------- null}
- -t 0.600752 -s 3 -d 2 -p ack -e 40 -c 1 -i 8 -a 1 -x {3.0 0.0 1 ------- null}
h -t 0.600752 -s 3 -d 2 -p ack -e 40 -c 1 -i 8 -a 1 -x {3.0 0.0 -1 ------- null}
r -t 0.60656 -s 1 -d 2 -p tcp -e 1040 -c 1 -i 5 -a 1 -x {0.0 3.0 2 ------- null}
+ -t 0.60656 -s 2 -d 3 -p tcp -e 1040 -c 1 -i 5 -a 1 -x {0.0 3.0 2 ------- null}
- -t 0.60656 -s 2 -d 3 -p tcp -e 1040 -c 1 -i 5 -a 1 -x {0.0 3.0 2 ------- null}
h -t 0.60656 -s 2 -d 3 -p tcp -e 1040 -c 1 -i 5 -a 1 -x {0.0 3.0 -1 ------- null}
r -t 0.609072 -s 2 -d 5 -p tcp -e 1040 -c 2 -i 6 -a 2 -x {4.0 5.0 1 ------- null}
+ -t 0.609072 -s 5 -d 2 -p ack -e 40 -c 2 -i 9 -a 2 -x {5.0 4.0 1 ------- null}
- -t 0.609072 -s 5 -d 2 -p ack -e 40 -c 2 -i 9 -a 2 -x {5.0 4.0 1 ------- null}
h -t 0.609072 -s 5 -d 2 -p ack -e 40 -c 2 -i 9 -a 2 -x {5.0 4.0 -1 ------- null}
r -t 0.610784 -s 3 -d 2 -p ack -e 40 -c 1 -i 8 -a 1 -x {3.0 0.0 1 ------- null}
+ -t 0.610784 -s 2 -d 1 -p ack -e 40 -c 1 -i 8 -a 1 -x {3.0 0.0 1 ------- null}
- -t 0.610784 -s 2 -d 1 -p ack -e 40 -c 1 -i 8 -a 1 -x {3.0 0.0 1 ------- null}
h -t 0.610784 -s 2 -d 1 -p ack -e 40 -c 1 -i 8 -a 1 -x {3.0 0.0 -1 ------- null}
r -t 0.61488 -s 1 -d 2 -p tcp -e 1040 -c 2 -i 7 -a 2 -x {4.0 5.0 2 ------- null}
+ -t 0.61488 -s 2 -d 5 -p tcp -e 1040 -c 2 -i 7 -a 2 -x {4.0 5.0 2 ------- null}
- -t 0.61488 -s 2 -d 5 -p tcp -e 1040 -c 2 -i 7 -a 2 -x {4.0 5.0 2 ------- null}
h -t 0.61488 -s 2 -d 5 -p tcp -e 1040 -c 2 -i 7 -a 2 -x {4.0 5.0 -1 ------- null}
r -t 0.617392 -s 2 -d 3 -p tcp -e 1040 -c 1 -i 5 -a 1 -x {0.0 3.0 2 ------- null}
+ -t 0.617392 -s 3 -d 2 -p ack -e 40 -c 1 -i 10 -a 1 -x {3.0 0.0 2 ------- null}
- -t 0.617392 -s 3 -d 2 -p ack -e 40 -c 1 -i 10 -a 1 -x {3.0 0.0 2 ------- null}
h -t 0.617392 -s 3 -d 2 -p ack -e 40 -c 1 -i 10 -a 1 -x {3.0 0.0 -1 ------- null}
r -t 0.619104 -s 5 -d 2 -p ack -e 40 -c 2 -i 9 -a 2 -x {5.0 4.0 1 ------- null}
+ -t 0.619104 -s 2 -d 1 -p ack -e 40 -c 2 -i 9 -a 2 -x {5.0 4.0 1 ------- null}
- -t 0.619104 -s 2 -d 1 -p ack -e 40 -c 2 -i 9 -a 2 -x {5.0 4.0 1 ------- null}
h -t 0.619104 -s 2 -d 1 -p ack -e 40 -c 2 -i 9 -a 2 -x {5.0 4.0 -1 ------- null}
r -t 0.621104 -s 2 -d 1 -p ack -e 40 -c 1 -i 8 -a 1 -x {3.0 0.0 1 ------- null}
+ -t 0.621104 -s 1 -d 0 -p ack -e 40 -c 1 -i 8 -a 1 -x {3.0 0.0 1 ------- null}
- -t 0.621104 -s 1 -d 0 -p ack -e 40 -c 1 -i 8 -a 1 -x {3.0 0.0 1 ------- null}
h -t 0.621104 -s 1 -d 0 -p ack -e 40 -c 1 -i 8 -a 1 -x {3.0 0.0 -1 ------- null}
r -t 0.625712 -s 2 -d 5 -p tcp -e 1040 -c 2 -i 7 -a 2 -x {4.0 5.0 2 ------- null}
+ -t 0.625712 -s 5 -d 2 -p ack -e 40 -c 2 -i 11 -a 2 -x {5.0 4.0 2 ------- null}
- -t 0.625712 -s 5 -d 2 -p ack -e 40 -c 2 -i 11 -a 2 -x {5.0 4.0 2 ------- null}
h -t 0.625712 -s 5 -d 2 -p ack -e 40 -c 2 -i 11 -a 2 -x {5.0 4.0 -1 ------- null}
r -t 0.627424 -s 3 -d 2 -p ack -e 40 -c 1 -i 10 -a 1 -x {3.0 0.0 2 ------- null}
+ -t 0.627424 -s 2 -d 1 -p ack -e 40 -c 1 -i 10 -a 1 -x {3.0 0.0 2 ------- null}
- -t 0.627424 -s 2 -d 1 -p ack -e 40 -c 1 -i 10 -a 1 -x {3.0 0.0 2 ------- null}
h -t 0.627424 -s 2 -d 1 -p ack -e 40 -c 1 -i 10 -a 1 -x {3.0 0.0 -1 ------- null}
r -t 0.629424 -s 2 -d 1 -p ack -e 40 -c 2 -i 9 -a 2 -x {5.0 4.0 1 ------- null}
+ -t 0.629424 -s 1 -d 4 -p ack -e 40 -c 2 -i 9 -a 2 -x {5.0 4.0 1 ------- null}
- -t 0.629424 -s 1 -d 4 -p ack -e 40 -c 2 -i 9 -a 2 -x {5.0 4.0 1 ------- null}
h -t 0.629424 -s 1 -d 4 -p ack -e 40 -c 2 -i 9 -a 2 -x {5.0 4.0 -1 ------- null}
r -t 0.631136 -s 1 -d 0 -p ack -e 40 -c 1 -i 8 -a 1 -x {3.0 0.0 1 ------- null}
+ -t 0.631136 -s 0 -d 1 -p tcp -e 1040 -c 1 -i 12 -a 1 -x {0.0 3.0 3 ------- null}
- -t 0.631136 -s 0 -d 1 -p tcp -e 1040 -c 1 -i 12 -a 1 -x {0.0 3.0 3 ------- null}
h -t 0.631136 -s 0 -d 1 -p tcp -e 1040 -c 1 -i 12 -a 1 -x {0.0 3.0 -1 ------- null}
+ -t 0.631136 -s 0 -d 1 -p tcp -e 1040 -c 1 -i 13 -a 1 -x {0.0 3.0 4 ------- null}
- -t 0.631968 -s 0 -d 1 -p tcp -e 1040 -c 1 -i 13 -a 1 -x {0.0 3.0 4 ------- null}
h -t 0.631968 -s 0 -d 1 -p tcp -e 1040 -c 1 -i 13 -a 1 -x {0.0 3.0 -1 ------- null}
r -t 0.635744 -s 5 -d 2 -p ack -e 40 -c 2 -i 11 -a 2 -x {5.0 4.0 2 ------- null}
+ -t 0.635744 -s 2 -d 1 -p ack -e 40 -c 2 -i 11 -a 2 -x {5.0 4.0 2 ------- null}
- -t 0.635744 -s 2 -d 1 -p ack -e 40 -c 2 -i 11 -a 2 -x {5.0 4.0 2 ------- null}
h -t 0.635744 -s 2 -d 1 -p ack -e 40 -c 2 -i 11 -a 2 -x {5.0 4.0 -1 ------- null}
r -t 0.637744 -s 2 -d 1 -p ack -e 40 -c 1 -i 10 -a 1 -x {3.0 0.0 2 ------- null}
+ -t 0.637744 -s 1 -d 0 -p ack -e 40 -c 1 -i 10 -a 1 -x {3.0 0.0 2 ------- null}
- -t 0.637744 -s 1 -d 0 -p ack -e 40 -c 1 -i 10 -a 1 -x {3.0 0.0 2 ------- null}
h -t 0.637744 -s 1 -d 0 -p ack -e 40 -c 1 -i 10 -a 1 -x {3.0 0.0 -1 ------- null}
r -t 0.639456 -s 1 -d 4 -p ack -e 40 -c 2 -i 9 -a 2 -x {5.0 4.0 1 ------- null}
+ -t 0.639456 -s 4 -d 1 -p tcp -e 1040 -c 2 -i 14 -a 2 -x {4.0 5.0 3 ------- null}
- -t 0.639456 -s 4 -d 1 -p tcp -e 1040 -c 2 -i 14 -a 2 -x {4.0 5.0 3 ------- null}
h -t 0.639456 -s 4 -d 1 -p tcp -e 1040 -c 2 -i 14 -a 2 -x {4.0 5.0 -1 ------- null}
+ -t 0.639456 -s 4 -d 1 -p tcp -e 1040 -c 2 -i 15 -a 2 -x {4.0 5.0 4 ------- null}
- -t 0.640288 -s 4 -d 1 -p tcp -e 1040 -c 2 -i 15 -a 2 -x {4.0 5.0 4 ------- null}
h -t 0.640288 -s 4 -d 1 -p tcp -e 1040 -c 2 -i 15 -a 2 -x {4.0 5.0 -1 ------- null}
r -t 0.641968 -s 0 -d 1 -p tcp -e 1040 -c 1 -i 12 -a 1 -x {0.0 3.0 3 ------- null}
+ -t 0.641968 -s 1 -d 2 -p tcp -e 1040 -c 1 -i 12 -a 1 -x {0.0 3.0 3 ------- null}
- -t 0.641968 -s 1 -d 2 -p tcp -e 1040 -c 1 -i 12 -a 1 -x {0.0 3.0 3 ------- null}
h -t 0.641968 -s 1 -d 2 -p tcp -e 1040 -c 1 -i 12 -a 1 -x {0.0 3.0 -1 ------- null}
r -t 0.6428 -s 0 -d 1 -p tcp -e 1040 -c 1 -i 13 -a 1 -x {0.0 3.0 4 ------- null}
+ -t 0.6428 -s 1 -d 2 -p tcp -e 1040 -c 1 -i 13 -a 1 -x {0.0 3.0 4 ------- null}
r -t 0.646064 -s 2 -d 1 -p ack -e 40 -c 2 -i 11 -a 2 -x {5.0 4.0 2 ------- null}
+ -t 0.646064 -s 1 -d 4 -p ack -e 40 -c 2 -i 11 -a 2 -x {5.0 4.0 2 ------- null}
- -t 0.646064 -s 1 -d 4 -p ack -e 40 -c 2 -i 11 -a 2 -x {5.0 4.0 2 ------- null}
h -t 0.646064 -s 1 -d 4 -p ack -e 40 -c 2 -i 11 -a 2 -x {5.0 4.0 -1 ------- null}
r -t 0.647776 -s 1 -d 0 -p ack -e 40 -c 1 -i 10 -a 1 -x {3.0 0.0 2 ------- null}
+ -t 0.647776 -s 0 -d 1 -p tcp -e 1040 -c 1 -i 16 -a 1 -x {0.0 3.0 5 ------- null}
- -t 0.647776 -s 0 -d 1 -p tcp -e 1040 -c 1 -i 16 -a 1 -x {0.0 3.0 5 ------- null}
h -t 0.647776 -s 0 -d 1 -p tcp -e 1040 -c 1 -i 16 -a 1 -x {0.0 3.0 -1 ------- null}
+ -t 0.647776 -s 0 -d 1 -p tcp -e 1040 -c 1 -i 17 -a 1 -x {0.0 3.0 6 ------- null}
- -t 0.648608 -s 0 -d 1 -p tcp -e 1040 -c 1 -i 17 -a 1 -x {0.0 3.0 6 ------- null}
h -t 0.648608 -s 0 -d 1 -p tcp -e 1040 -c 1 -i 17 -a 1 -x {0.0 3.0 -1 ------- null}
r -t 0.650288 -s 4 -d 1 -p tcp -e 1040 -c 2 -i 14 -a 2 -x {4.0 5.0 3 ------- null}
+ -t 0.650288 -s 1 -d 2 -p tcp -e 1040 -c 2 -i 14 -a 2 -x {4.0 5.0 3 ------- null}
- -t 0.650288 -s 1 -d 2 -p tcp -e 1040 -c 1 -i 13 -a 1 -x {0.0 3.0 4 ------- null}
h -t 0.650288 -s 1 -d 2 -p tcp -e 1040 -c 1 -i 13 -a 1 -x {0.0 3.0 -1 ------- null}
r -t 0.65112 -s 4 -d 1 -p tcp -e 1040 -c 2 -i 15 -a 2 -x {4.0 5.0 4 ------- null}
+ -t 0.65112 -s 1 -d 2 -p tcp -e 1040 -c 2 -i 15 -a 2 -x {4.0 5.0 4 ------- null}
r -t 0.656096 -s 1 -d 4 -p ack -e 40 -c 2 -i 11 -a 2 -x {5.0 4.0 2 ------- null}
+ -t 0.656096 -s 4 -d 1 -p tcp -e 1040 -c 2 -i 18 -a 2 -x {4.0 5.0 5 ------- null}
- -t 0.656096 -s 4 -d 1 -p tcp -e 1040 -c 2 -i 18 -a 2 -x {4.0 5.0 5 ------- null}
h -t 0.656096 -s 4 -d 1 -p tcp -e 1040 -c 2 -i 18 -a 2 -x {4.0 5.0 -1 ------- null}
+ -t 0.656096 -s 4 -d 1 -p tcp -e 1040 -c 2 -i 19 -a 2 -x {4.0 5.0 6 ------- null}
- -t 0.656928 -s 4 -d 1 -p tcp -e 1040 -c 2 -i 19 -a 2 -x {4.0 5.0 6 ------- null}
h -t 0.656928 -s 4 -d 1 -p tcp -e 1040 -c 2 -i 19 -a 2 -x {4.0 5.0 -1 ------- null}
r -t 0.658608 -s 0 -d 1 -p tcp -e 1040 -c 1 -i 16 -a 1 -x {0.0 3.0 5 ------- null}
+ -t 0.658608 -s 1 -d 2 -p tcp -e 1040 -c 1 -i 16 -a 1 -x {0.0 3.0 5 ------- null}
- -t 0.658608 -s 1 -d 2 -p tcp -e 1040 -c 2 -i 14 -a 2 -x {4.0 5.0 3 ------- null}
h -t 0.658608 -s 1 -d 2 -p tcp -e 1040 -c 2 -i 14 -a 2 -x {4.0 5.0 -1 ------- null}
r -t 0.65944 -s 0 -d 1 -p tcp -e 1040 -c 1 -i 17 -a 1 -x {0.0 3.0 6 ------- null}
+ -t 0.65944 -s 1 -d 2 -p tcp -e 1040 -c 1 -i 17 -a 1 -x {0.0 3.0 6 ------- null}
r -t 0.660288 -s 1 -d 2 -p tcp -e 1040 -c 1 -i 12 -a 1 -x {0.0 3.0 3 ------- null}
+ -t 0.660288 -s 2 -d 3 -p tcp -e 1040 -c 1 -i 12 -a 1 -x {0.0 3.0 3 ------- null}
- -t 0.660288 -s 2 -d 3 -p tcp -e 1040 -c 1 -i 12 -a 1 -x {0.0 3.0 3 ------- null}
h -t 0.660288 -s 2 -d 3 -p tcp -e 1040 -c 1 -i 12 -a 1 -x {0.0 3.0 -1 ------- null}
r -t 0.666928 -s 4 -d 1 -p tcp -e 1040 -c 2 -i 18 -a 2 -x {4.0 5.0 5 ------- null}
+ -t 0.666928 -s 1 -d 2 -p tcp -e 1040 -c 2 -i 18 -a 2 -x {4.0 5.0 5 ------- null}
- -t 0.666928 -s 1 -d 2 -p tcp -e 1040 -c 2 -i 15 -a 2 -x {4.0 5.0 4 ------- null}
h -t 0.666928 -s 1 -d 2 -p tcp -e 1040 -c 2 -i 15 -a 2 -x {4.0 5.0 -1 ------- null}
r -t 0.66776 -s 4 -d 1 -p tcp -e 1040 -c 2 -i 19 -a 2 -x {4.0 5.0 6 ------- null}
+ -t 0.66776 -s 1 -d 2 -p tcp -e 1040 -c 2 -i 19 -a 2 -x {4.0 5.0 6 ------- null}
r -t 0.668608 -s 1 -d 2 -p tcp -e 1040 -c 1 -i 13 -a 1 -x {0.0 3.0 4 ------- null}
+ -t 0.668608 -s 2 -d 3 -p tcp -e 1040 -c 1 -i 13 -a 1 -x {0.0 3.0 4 ------- null}
- -t 0.668608 -s 2 -d 3 -p tcp -e 1040 -c 1 -i 13 -a 1 -x {0.0 3.0 4 ------- null}
h -t 0.668608 -s 2 -d 3 -p tcp -e 1040 -c 1 -i 13 -a 1 -x {0.0 3.0 -1 ------- null}
r -t 0.67112 -s 2 -d 3 -p tcp -e 1040 -c 1 -i 12 -a 1 -x {0.0 3.0 3 ------- null}
+ -t 0.67112 -s 3 -d 2 -p ack -e 40 -c 1 -i 20 -a 1 -x {3.0 0.0 3 ------- null}
- -t 0.67112 -s 3 -d 2 -p ack -e 40 -c 1 -i 20 -a 1 -x {3.0 0.0 3 ------- null}
h -t 0.67112 -s 3 -d 2 -p ack -e 40 -c 1 -i 20 -a 1 -x {3.0 0.0 -1 ------- null}
- -t 0.675248 -s 1 -d 2 -p tcp -e 1040 -c 1 -i 16 -a 1 -x {0.0 3.0 5 ------- null}
h -t 0.675248 -s 1 -d 2 -p tcp -e 1040 -c 1 -i 16 -a 1 -x {0.0 3.0 -1 ------- null}
r -t 0.676928 -s 1 -d 2 -p tcp -e 1040 -c 2 -i 14 -a 2 -x {4.0 5.0 3 ------- null}
+ -t 0.676928 -s 2 -d 5 -p tcp -e 1040 -c 2 -i 14 -a 2 -x {4.0 5.0 3 ------- null}
- -t 0.676928 -s 2 -d 5 -p tcp -e 1040 -c 2 -i 14 -a 2 -x {4.0 5.0 3 ------- null}
h -t 0.676928 -s 2 -d 5 -p tcp -e 1040 -c 2 -i 14 -a 2 -x {4.0 5.0 -1 ------- null}
r -t 0.67944 -s 2 -d 3 -p tcp -e 1040 -c 1 -i 13 -a 1 -x {0.0 3.0 4 ------- null}
+ -t 0.67944 -s 3 -d 2 -p ack -e 40 -c 1 -i 21 -a 1 -x {3.0 0.0 4 ------- null}
- -t 0.67944 -s 3 -d 2 -p ack -e 40 -c 1 -i 21 -a 1 -x {3.0 0.0 4 ------- null}
h -t 0.67944 -s 3 -d 2 -p ack -e 40 -c 1 -i 21 -a 1 -x {3.0 0.0 -1 ------- null}
r -t 0.681152 -s 3 -d 2 -p ack -e 40 -c 1 -i 20 -a 1 -x {3.0 0.0 3 ------- null}
+ -t 0.681152 -s 2 -d 1 -p ack -e 40 -c 1 -i 20 -a 1 -x {3.0 0.0 3 ------- null}
- -t 0.681152 -s 2 -d 1 -p ack -e 40 -c 1 -i 20 -a 1 -x {3.0 0.0 3 ------- null}
h -t 0.681152 -s 2 -d 1 -p ack -e 40 -c 1 -i 20 -a 1 -x {3.0 0.0 -1 ------- null}
- -t 0.683568 -s 1 -d 2 -p tcp -e 1040 -c 1 -i 17 -a 1 -x {0.0 3.0 6 ------- null}
h -t 0.683568 -s 1 -d 2 -p tcp -e 1040 -c 1 -i 17 -a 1 -x {0.0 3.0 -1 ------- null}
r -t 0.685248 -s 1 -d 2 -p tcp -e 1040 -c 2 -i 15 -a 2 -x {4.0 5.0 4 ------- null}
+ -t 0.685248 -s 2 -d 5 -p tcp -e 1040 -c 2 -i 15 -a 2 -x {4.0 5.0 4 ------- null}
- -t 0.685248 -s 2 -d 5 -p tcp -e 1040 -c 2 -i 15 -a 2 -x {4.0 5.0 4 ------- null}
h -t 0.685248 -s 2 -d 5 -p tcp -e 1040 -c 2 -i 15 -a 2 -x {4.0 5.0 -1 ------- null}
r -t 0.68776 -s 2 -d 5 -p tcp -e 1040 -c 2 -i 14 -a 2 -x {4.0 5.0 3 ------- null}
+ -t 0.68776 -s 5 -d 2 -p ack -e 40 -c 2 -i 22 -a 2 -x {5.0 4.0 3 ------- null}
- -t 0.68776 -s 5 -d 2 -p ack -e 40 -c 2 -i 22 -a 2 -x {5.0 4.0 3 ------- null}
h -t 0.68776 -s 5 -d 2 -p ack -e 40 -c 2 -i 22 -a 2 -x {5.0 4.0 -1 ------- null}
r -t 0.689472 -s 3 -d 2 -p ack -e 40 -c 1 -i 21 -a 1 -x {3.0 0.0 4 ------- null}
+ -t 0.689472 -s 2 -d 1 -p ack -e 40 -c 1 -i 21 -a 1 -x {3.0 0.0 4 ------- null}
- -t 0.689472 -s 2 -d 1 -p ack -e 40 -c 1 -i 21 -a 1 -x {3.0 0.0 4 ------- null}
h -t 0.689472 -s 2 -d 1 -p ack -e 40 -c 1 -i 21 -a 1 -x {3.0 0.0 -1 ------- null}
r -t 0.691472 -s 2 -d 1 -p ack -e 40 -c 1 -i 20 -a 1 -x {3.0 0.0 3 ------- null}
+ -t 0.691472 -s 1 -d 0 -p ack -e 40 -c 1 -i 20 -a 1 -x {3.0 0.0 3 ------- null}
- -t 0.691472 -s 1 -d 0 -p ack -e 40 -c 1 -i 20 -a 1 -x {3.0 0.0 3 ------- null}
h -t 0.691472 -s 1 -d 0 -p ack -e 40 -c 1 -i 20 -a 1 -x {3.0 0.0 -1 ------- null}
- -t 0.691888 -s 1 -d 2 -p tcp -e 1040 -c 2 -i 18 -a 2 -x {4.0 5.0 5 ------- null}
h -t 0.691888 -s 1 -d 2 -p tcp -e 1040 -c 2 -i 18 -a 2 -x {4.0 5.0 -1 ------- null}
r -t 0.693568 -s 1 -d 2 -p tcp -e 1040 -c 1 -i 16 -a 1 -x {0.0 3.0 5 ------- null}
+ -t 0.693568 -s 2 -d 3 -p tcp -e 1040 -c 1 -i 16 -a 1 -x {0.0 3.0 5 ------- null}
- -t 0.693568 -s 2 -d 3 -p tcp -e 1040 -c 1 -i 16 -a 1 -x {0.0 3.0 5 ------- null}
h -t 0.693568 -s 2 -d 3 -p tcp -e 1040 -c 1 -i 16 -a 1 -x {0.0 3.0 -1 ------- null}
r -t 0.69608 -s 2 -d 5 -p tcp -e 1040 -c 2 -i 15 -a 2 -x {4.0 5.0 4 ------- null}
+ -t 0.69608 -s 5 -d 2 -p ack -e 40 -c 2 -i 23 -a 2 -x {5.0 4.0 4 ------- null}
- -t 0.69608 -s 5 -d 2 -p ack -e 40 -c 2 -i 23 -a 2 -x {5.0 4.0 4 ------- null}
h -t 0.69608 -s 5 -d 2 -p ack -e 40 -c 2 -i 23 -a 2 -x {5.0 4.0 -1 ------- null}
r -t 0.697792 -s 5 -d 2 -p ack -e 40 -c 2 -i 22 -a 2 -x {5.0 4.0 3 ------- null}
+ -t 0.697792 -s 2 -d 1 -p ack -e 40 -c 2 -i 22 -a 2 -x {5.0 4.0 3 ------- null}
- -t 0.697792 -s 2 -d 1 -p ack -e 40 -c 2 -i 22 -a 2 -x {5.0 4.0 3 ------- null}
h -t 0.697792 -s 2 -d 1 -p ack -e 40 -c 2 -i 22 -a 2 -x {5.0 4.0 -1 ------- null}
r -t 0.699792 -s 2 -d 1 -p ack -e 40 -c 1 -i 21 -a 1 -x {3.0 0.0 4 ------- null}
+ -t 0.699792 -s 1 -d 0 -p ack -e 40 -c 1 -i 21 -a 1 -x {3.0 0.0 4 ------- null}
- -t 0.699792 -s 1 -d 0 -p ack -e 40 -c 1 -i 21 -a 1 -x {3.0 0.0 4 ------- null}
h -t 0.699792 -s 1 -d 0 -p ack -e 40 -c 1 -i 21 -a 1 -x {3.0 0.0 -1 ------- null}
- -t 0.700208 -s 1 -d 2 -p tcp -e 1040 -c 2 -i 19 -a 2 -x {4.0 5.0 6 ------- null}
h -t 0.700208 -s 1 -d 2 -p tcp -e 1040 -c 2 -i 19 -a 2 -x {4.0 5.0 -1 ------- null}
r -t 0.701504 -s 1 -d 0 -p ack -e 40 -c 1 -i 20 -a 1 -x {3.0 0.0 3 ------- null}
+ -t 0.701504 -s 0 -d 1 -p tcp -e 1040 -c 1 -i 24 -a 1 -x {0.0 3.0 7 ------- null}
- -t 0.701504 -s 0 -d 1 -p tcp -e 1040 -c 1 -i 24 -a 1 -x {0.0 3.0 7 ------- null}
h -t 0.701504 -s 0 -d 1 -p tcp -e 1040 -c 1 -i 24 -a 1 -x {0.0 3.0 -1 ------- null}
+ -t 0.701504 -s 0 -d 1 -p tcp -e 1040 -c 1 -i 25 -a 1 -x {0.0 3.0 8 ------- null}
r -t 0.701888 -s 1 -d 2 -p tcp -e 1040 -c 1 -i 17 -a 1 -x {0.0 3.0 6 ------- null}
+ -t 0.701888 -s 2 -d 3 -p tcp -e 1040 -c 1 -i 17 -a 1 -x {0.0 3.0 6 ------- null}
- -t 0.701888 -s 2 -d 3 -p tcp -e 1040 -c 1 -i 17 -a 1 -x {0.0 3.0 6 ------- null}
h -t 0.701888 -s 2 -d 3 -p tcp -e 1040 -c 1 -i 17 -a 1 -x {0.0 3.0 -1 ------- null}
- -t 0.702336 -s 0 -d 1 -p tcp -e 1040 -c 1 -i 25 -a 1 -x {0.0 3.0 8 ------- null}
h -t 0.702336 -s 0 -d 1 -p tcp -e 1040 -c 1 -i 25 -a 1 -x {0.0 3.0 -1 ------- null}
r -t 0.7044 -s 2 -d 3 -p tcp -e 1040 -c 1 -i 16 -a 1 -x {0.0 3.0 5 ------- null}
+ -t 0.7044 -s 3 -d 2 -p ack -e 40 -c 1 -i 26 -a 1 -x {3.0 0.0 5 ------- null}
- -t 0.7044 -s 3 -d 2 -p ack -e 40 -c 1 -i 26 -a 1 -x {3.0 0.0 5 ------- null}
h -t 0.7044 -s 3 -d 2 -p ack -e 40 -c 1 -i 26 -a 1 -x {3.0 0.0 -1 ------- null}
r -t 0.706112 -s 5 -d 2 -p ack -e 40 -c 2 -i 23 -a 2 -x {5.0 4.0 4 ------- null}
+ -t 0.706112 -s 2 -d 1 -p ack -e 40 -c 2 -i 23 -a 2 -x {5.0 4.0 4 ------- null}
- -t 0.706112 -s 2 -d 1 -p ack -e 40 -c 2 -i 23 -a 2 -x {5.0 4.0 4 ------- null}
h -t 0.706112 -s 2 -d 1 -p ack -e 40 -c 2 -i 23 -a 2 -x {5.0 4.0 -1 ------- null}
r -t 0.708112 -s 2 -d 1 -p ack -e 40 -c 2 -i 22 -a 2 -x {5.0 4.0 3 ------- null}
+ -t 0.708112 -s 1 -d 4 -p ack -e 40 -c 2 -i 22 -a 2 -x {5.0 4.0 3 ------- null}
- -t 0.708112 -s 1 -d 4 -p ack -e 40 -c 2 -i 22 -a 2 -x {5.0 4.0 3 ------- null}
h -t 0.708112 -s 1 -d 4 -p ack -e 40 -c 2 -i 22 -a 2 -x {5.0 4.0 -1 ------- null}
r -t 0.709824 -s 1 -d 0 -p ack -e 40 -c 1 -i 21 -a 1 -x {3.0 0.0 4 ------- null}
+ -t 0.709824 -s 0 -d 1 -p tcp -e 1040 -c 1 -i 27 -a 1 -x {0.0 3.0 9 ------- null}
- -t 0.709824 -s 0 -d 1 -p tcp -e 1040 -c 1 -i 27 -a 1 -x {0.0 3.0 9 ------- null}
h -t 0.709824 -s 0 -d 1 -p tcp -e 1040 -c 1 -i 27 -a 1 -x {0.0 3.0 -1 ------- null}
+ -t 0.709824 -s 0 -d 1 -p tcp -e 1040 -c 1 -i 28 -a 1 -x {0.0 3.0 10 ------- null}
r -t 0.710208 -s 1 -d 2 -p tcp -e 1040 -c 2 -i 18 -a 2 -x {4.0 5.0 5 ------- null}
+ -t 0.710208 -s 2 -d 5 -p tcp -e 1040 -c 2 -i 18 -a 2 -x {4.0 5.0 5 ------- null}
- -t 0.710208 -s 2 -d 5 -p tcp -e 1040 -c 2 -i 18 -a 2 -x {4.0 5.0 5 ------- null}
h -t 0.710208 -s 2 -d 5 -p tcp -e 1040 -c 2 -i 18 -a 2 -x {4.0 5.0 -1 ------- null}
- -t 0.710656 -s 0 -d 1 -p tcp -e 1040 -c 1 -i 28 -a 1 -x {0.0 3.0 10 ------- null}
h -t 0.710656 -s 0 -d 1 -p tcp -e 1040 -c 1 -i 28 -a 1 -x {0.0 3.0 -1 ------- null}
r -t 0.712336 -s 0 -d 1 -p tcp -e 1040 -c 1 -i 24 -a 1 -x {0.0 3.0 7 ------- null}
+ -t 0.712336 -s 1 -d 2 -p tcp -e 1040 -c 1 -i 24 -a 1 -x {0.0 3.0 7 ------- null}
- -t 0.712336 -s 1 -d 2 -p tcp -e 1040 -c 1 -i 24 -a 1 -x {0.0 3.0 7 ------- null}
h -t 0.712336 -s 1 -d 2 -p tcp -e 1040 -c 1 -i 24 -a 1 -x {0.0 3.0 -1 ------- null}
r -t 0.71272 -s 2 -d 3 -p tcp -e 1040 -c 1 -i 17 -a 1 -x {0.0 3.0 6 ------- null}
+ -t 0.71272 -s 3 -d 2 -p ack -e 40 -c 1 -i 29 -a 1 -x {3.0 0.0 6 ------- null}
- -t 0.71272 -s 3 -d 2 -p ack -e 40 -c 1 -i 29 -a 1 -x {3.0 0.0 6 ------- null}
h -t 0.71272 -s 3 -d 2 -p ack -e 40 -c 1 -i 29 -a 1 -x {3.0 0.0 -1 ------- null}
r -t 0.713168 -s 0 -d 1 -p tcp -e 1040 -c 1 -i 25 -a 1 -x {0.0 3.0 8 ------- null}
+ -t 0.713168 -s 1 -d 2 -p tcp -e 1040 -c 1 -i 25 -a 1 -x {0.0 3.0 8 ------- null}
r -t 0.714432 -s 3 -d 2 -p ack -e 40 -c 1 -i 26 -a 1 -x {3.0 0.0 5 ------- null}
+ -t 0.714432 -s 2 -d 1 -p ack -e 40 -c 1 -i 26 -a 1 -x {3.0 0.0 5 ------- null}
- -t 0.714432 -s 2 -d 1 -p ack -e 40 -c 1 -i 26 -a 1 -x {3.0 0.0 5 ------- null}
h -t 0.714432 -s 2 -d 1 -p ack -e 40 -c 1 -i 26 -a 1 -x {3.0 0.0 -1 ------- null}
r -t 0.716432 -s 2 -d 1 -p ack -e 40 -c 2 -i 23 -a 2 -x {5.0 4.0 4 ------- null}
+ -t 0.716432 -s 1 -d 4 -p ack -e 40 -c 2 -i 23 -a 2 -x {5.0 4.0 4 ------- null}
- -t 0.716432 -s 1 -d 4 -p ack -e 40 -c 2 -i 23 -a 2 -x {5.0 4.0 4 ------- null}
h -t 0.716432 -s 1 -d 4 -p ack -e 40 -c 2 -i 23 -a 2 -x {5.0 4.0 -1 ------- null}
r -t 0.718144 -s 1 -d 4 -p ack -e 40 -c 2 -i 22 -a 2 -x {5.0 4.0 3 ------- null}
+ -t 0.718144 -s 4 -d 1 -p tcp -e 1040 -c 2 -i 30 -a 2 -x {4.0 5.0 7 ------- null}
- -t 0.718144 -s 4 -d 1 -p tcp -e 1040 -c 2 -i 30 -a 2 -x {4.0 5.0 7 ------- null}
h -t 0.718144 -s 4 -d 1 -p tcp -e 1040 -c 2 -i 30 -a 2 -x {4.0 5.0 -1 ------- null}
+ -t 0.718144 -s 4 -d 1 -p tcp -e 1040 -c 2 -i 31 -a 2 -x {4.0 5.0 8 ------- null}
r -t 0.718528 -s 1 -d 2 -p tcp -e 1040 -c 2 -i 19 -a 2 -x {4.0 5.0 6 ------- null}
+ -t 0.718528 -s 2 -d 5 -p tcp -e 1040 -c 2 -i 19 -a 2 -x {4.0 5.0 6 ------- null}
- -t 0.718528 -s 2 -d 5 -p tcp -e 1040 -c 2 -i 19 -a 2 -x {4.0 5.0 6 ------- null}
h -t 0.718528 -s 2 -d 5 -p tcp -e 1040 -c 2 -i 19 -a 2 -x {4.0 5.0 -1 ------- null}
- -t 0.718976 -s 4 -d 1 -p tcp -e 1040 -c 2 -i 31 -a 2 -x {4.0 5.0 8 ------- null}
h -t 0.718976 -s 4 -d 1 -p tcp -e 1040 -c 2 -i 31 -a 2 -x {4.0 5.0 -1 ------- null}
r -t 0.720656 -s 0 -d 1 -p tcp -e 1040 -c 1 -i 27 -a 1 -x {0.0 3.0 9 ------- null}
+ -t 0.720656 -s 1 -d 2 -p tcp -e 1040 -c 1 -i 27 -a 1 -x {0.0 3.0 9 ------- null}
- -t 0.720656 -s 1 -d 2 -p tcp -e 1040 -c 1 -i 25 -a 1 -x {0.0 3.0 8 ------- null}
h -t 0.720656 -s 1 -d 2 -p tcp -e 1040 -c 1 -i 25 -a 1 -x {0.0 3.0 -1 ------- null}
r -t 0.72104 -s 2 -d 5 -p tcp -e 1040 -c 2 -i 18 -a 2 -x {4.0 5.0 5 ------- null}
+ -t 0.72104 -s 5 -d 2 -p ack -e 40 -c 2 -i 32 -a 2 -x {5.0 4.0 5 ------- null}
- -t 0.72104 -s 5 -d 2 -p ack -e 40 -c 2 -i 32 -a 2 -x {5.0 4.0 5 ------- null}
h -t 0.72104 -s 5 -d 2 -p ack -e 40 -c 2 -i 32 -a 2 -x {5.0 4.0 -1 ------- null}
r -t 0.721488 -s 0 -d 1 -p tcp -e 1040 -c 1 -i 28 -a 1 -x {0.0 3.0 10 ------- null}
+ -t 0.721488 -s 1 -d 2 -p tcp -e 1040 -c 1 -i 28 -a 1 -x {0.0 3.0 10 ------- null}
r -t 0.722752 -s 3 -d 2 -p ack -e 40 -c 1 -i 29 -a 1 -x {3.0 0.0 6 ------- null}
+ -t 0.722752 -s 2 -d 1 -p ack -e 40 -c 1 -i 29 -a 1 -x {3.0 0.0 6 ------- null}
- -t 0.722752 -s 2 -d 1 -p ack -e 40 -c 1 -i 29 -a 1 -x {3.0 0.0 6 ------- null}
h -t 0.722752 -s 2 -d 1 -p ack -e 40 -c 1 -i 29 -a 1 -x {3.0 0.0 -1 ------- null}
r -t 0.724752 -s 2 -d 1 -p ack -e 40 -c 1 -i 26 -a 1 -x {3.0 0.0 5 ------- null}
+ -t 0.724752 -s 1 -d 0 -p ack -e 40 -c 1 -i 26 -a 1 -x {3.0 0.0 5 ------- null}
- -t 0.724752 -s 1 -d 0 -p ack -e 40 -c 1 -i 26 -a 1 -x {3.0 0.0 5 ------- null}
h -t 0.724752 -s 1 -d 0 -p ack -e 40 -c 1 -i 26 -a 1 -x {3.0 0.0 -1 ------- null}
r -t 0.726464 -s 1 -d 4 -p ack -e 40 -c 2 -i 23 -a 2 -x {5.0 4.0 4 ------- null}
+ -t 0.726464 -s 4 -d 1 -p tcp -e 1040 -c 2 -i 33 -a 2 -x {4.0 5.0 9 ------- null}
- -t 0.726464 -s 4 -d 1 -p tcp -e 1040 -c 2 -i 33 -a 2 -x {4.0 5.0 9 ------- null}
h -t 0.726464 -s 4 -d 1 -p tcp -e 1040 -c 2 -i 33 -a 2 -x {4.0 5.0 -1 ------- null}
+ -t 0.726464 -s 4 -d 1 -p tcp -e 1040 -c 2 -i 34 -a 2 -x {4.0 5.0 10 ------- null}
- -t 0.727296 -s 4 -d 1 -p tcp -e 1040 -c 2 -i 34 -a 2 -x {4.0 5.0 10 ------- null}
h -t 0.727296 -s 4 -d 1 -p tcp -e 1040 -c 2 -i 34 -a 2 -x {4.0 5.0 -1 ------- null}
r -t 0.728976 -s 4 -d 1 -p tcp -e 1040 -c 2 -i 30 -a 2 -x {4.0 5.0 7 ------- null}
+ -t 0.728976 -s 1 -d 2 -p tcp -e 1040 -c 2 -i 30 -a 2 -x {4.0 5.0 7 ------- null}
- -t 0.728976 -s 1 -d 2 -p tcp -e 1040 -c 1 -i 27 -a 1 -x {0.0 3.0 9 ------- null}
h -t 0.728976 -s 1 -d 2 -p tcp -e 1040 -c 1 -i 27 -a 1 -x {0.0 3.0 -1 ------- null}
r -t 0.72936 -s 2 -d 5 -p tcp -e 1040 -c 2 -i 19 -a 2 -x {4.0 5.0 6 ------- null}
+ -t 0.72936 -s 5 -d 2 -p ack -e 40 -c 2 -i 35 -a 2 -x {5.0 4.0 6 ------- null}
- -t 0.72936 -s 5 -d 2 -p ack -e 40 -c 2 -i 35 -a 2 -x {5.0 4.0 6 ------- null}
h -t 0.72936 -s 5 -d 2 -p ack -e 40 -c 2 -i 35 -a 2 -x {5.0 4.0 -1 ------- null}
r -t 0.729808 -s 4 -d 1 -p tcp -e 1040 -c 2 -i 31 -a 2 -x {4.0 5.0 8 ------- null}
+ -t 0.729808 -s 1 -d 2 -p tcp -e 1040 -c 2 -i 31 -a 2 -x {4.0 5.0 8 ------- null}
r -t 0.730656 -s 1 -d 2 -p tcp -e 1040 -c 1 -i 24 -a 1 -x {0.0 3.0 7 ------- null}
+ -t 0.730656 -s 2 -d 3 -p tcp -e 1040 -c 1 -i 24 -a 1 -x {0.0 3.0 7 ------- null}
- -t 0.730656 -s 2 -d 3 -p tcp -e 1040 -c 1 -i 24 -a 1 -x {0.0 3.0 7 ------- null}