V -t * -v 1.0a5 -a 0
A -t * -n 1 -p 0 -o 0x7fffffff -c 30 -a 1
A -t * -h 1 -m 1073741823 -s 0
c -t * -i 1 -n Blue
c -t * -i 2 -n Red
c -t * -i 3 -n Green
n -t * -a 4 -s 4 -S UP -v circle -c black -i black
n -t * -a 0 -s 0 -S UP -v circle -c black -i black
n -t * -a 5 -s 5 -S UP -v circle -c black -i black
n -t * -a 1 -s 1 -S UP -v circle -c black -i black
n -t * -a 2 -s 2 -S UP -v circle -c black -i black
n -t * -a 3 -s 3 -S UP -v circle -c black -i black
l -t * -s 0 -d 1 -S UP -r 10000000 -D 0.01 -c black -o right-down
l -t * -s 4 -d 1 -S UP -r 10000000 -D 0.01 -c black -o right-up
l -t * -s 1 -d 2 -S UP -r 10000000 -D 0.01 -c black -o right
l -t * -s 2 -d 3 -S UP -r 10000000 -D 0.01 -c black -o right-up
l -t * -s 2 -d 5 -S UP -r 10000000 -D 0.01 -c black -o right-down
+ -t 0.5 -s 1 -d 2 -p cbr -e 1000 -c 3 -i 0 -a 3 -x {1.0 2.0 0 ------- null}
- -t 0.5 -s 1 -d 2 -p cbr -e 1000 -c 3 -i 0 -a 3 -x {1.0 2.0 0 ------- null}
h -t 0.5 -s 1 -d 2 -p cbr -e 1000 -c 3 -i 0 -a 3 -x {1.0 2.0 -1 ------- null}
+ -t 0.5 -s 0 -d 1 -p tcp -e 1000 -c 1 -i 1 -a 1 -x {0.0 3.0 0 ------- null}
- -t 0.5 -s 0 -d 1 -p tcp -e 1000 -c 1 -i 1 -a 1 -x {0.0 3.0 0 ------- null}
h -t 0.5 -s 0 -d 1 -p tcp -e 1000 -c 1 -i 1 -a 1 -x {0.0 3.0 -1 ------- null}
+ -t 0.5008 -s 1 -d 2 -p cbr -e 1000 -c 3 -i 2 -a 3 -x {1.0 2.0 1 ------- null}
- -t 0.5008 -s 1 -d 2 -p cbr -e 1000 -c 3 -i 2 -a 3 -x {1.0 2.0 1 ------- null}
h -t 0.5008 -s 1 -d 2 -p cbr -e 1000 -c 3 -i 2 -a 3 -x {1.0 2.0 -1 ------- null}
+ -t 0.5016 -s 1 -d 2 -p cbr -e 1000 -c 3 -i 3 -a 3 -x {1.0 2.0 2 ------- null}
- -t 0.5016 -s 1 -d 2 -p cbr -e 1000 -c 3 -i 3 -a 3 -x {1.0 2.0 2 ------- null}
h -t 0.5016 -s 1 -d 2 -p cbr -e 1000 -c 3 -i 3 -a 3 -x {1.0 2.0 -1 ------- null}
+ -t 0.5024 -s 1 -d 2 -p cbr -e 1000 -c 3 -i 4 -a 3 -x {1.0 2.0 3 ------- null}
- -t 0.5024 -s 1 -d 2 -p cbr -e 1000 -c 3 -i 4 -a 3 -x {1.0 2.0 3 ------- null}
h -t 0.5024 -s 1 -d 2 -p cbr -e 1000 -c 3 -i 4 -a 3 -x {1.0 2.0 -1 ------- null}
+ -t 0.5032 -s 1 -d 2 -p cbr -e 1000 -c 3 -i 5 -a 3 -x {1.0 2.0 4 ------- null}
- -t 0.5032 -s 1 -d 2 -p cbr -e 1000 -c 3 -i 5 -a 3 -x {1.0 2.0 4 ------- null}
h -t 0.5032 -s 1 -d 2 -p cbr -e 1000 -c 3 -i 5 -a 3 -x {1.0 2.0 -1 ------- null}
+ -t 0.504 -s 1 -d 2 -p cbr -e 1000 -c 3 -i 6 -a 3 -x {1.0 2.0 5 ------- null}
- -t 0.504 -s 1 -d 2 -p cbr -e 1000 -c 3 -i 6 -a 3 -x {1.0 2.0 5 ------- null}
h -t 0.504 -s 1 -d 2 -p cbr -e 1000 -c 3 -i 6 -a 3 -x {1.0 2.0 -1 ------- null}
+ -t 0.5048 -s 1 -d 2 -p cbr -e 1000 -c 3 -i 7 -a 3 -x {1.0 2.0 6 ------- null}
- -t 0.5048 -s 1 -d 2 -p cbr -e 1000 -c 3 -i 7 -a 3 -x {1.0 2.0 6 ------- null}
h -t 0.5048 -s 1 -d 2 -p cbr -e 1000 -c 3 -i 7 -a 3 -x {1.0 2.0 -1 ------- null}
+ -t 0.5056 -s 1 -d 2 -p cbr -e 1000 -c 3 -i 8 -a 3 -x {1.0 2.0 7 ------- null}
- -t 0.5056 -s 1 -d 2 -p cbr -e 1000 -c 3 -i 8 -a 3 -x {1.0 2.0 7 ------- null}
h -t 0.5056 -s 1 -d 2 -p cbr -e 1000 -c 3 -i 8 -a 3 -x {1.0 2.0 -1 ------- null}
+ -t 0.5064 -s 1 -d 2 -p cbr -e 1000 -c 3 -i 9 -a 3 -x {1.0 2.0 8 ------- null}
- -t 0.5064 -s 1 -d 2 -p cbr -e 1000 -c 3 -i 9 -a 3 -x {1.0 2.0 8 ------- null}
h -t 0.5064 -s 1 -d 2 -p cbr -e 1000 -c 3 -i 9 -a 3 -x {1.0 2.0 -1 ------- null}
+ -t 0.5072 -s 1 -d 2 -p cbr -e 1000 -c 3 -i 10 -a 3 -x {1.0 2.0 9 ------- null}
- -t 0.5072 -s 1 -d 2 -p cbr -e 1000 -c 3 -i 10 -a 3 -x {1.0 2.0 9 ------- null}
h -t 0.5072 -s 1 -d 2 -p cbr -e 1000 -c 3 -i 10 -a 3 -x {1.0 2.0 -1 ------- null}
+ -t 0.508 -s 1 -d 2 -p cbr -e 1000 -c 3 -i 11 -a 3 -x {1.0 2.0 10 ------- null}
- -t 0.508 -s 1 -d 2 -p cbr -e 1000 -c 3 -i 11 -a 3 -x {1.0 2.0 10 ------- null}
h -t 0.508 -s 1 -d 2 -p cbr -e 1000 -c 3 -i 11 -a 3 -x {1.0 2.0 -1 ------- null}
+ -t 0.5088 -s 1 -d 2 -p cbr -e 1000 -c 3 -i 12 -a 3 -x {1.0 2.0 11 ------- null}
- -t 0.5088 -s 1 -d 2 -p cbr -e 1000 -c 3 -i 12 -a 3 -x {1.0 2.0 11 ------- null}
h -t 0.5088 -s 1 -d 2 -p cbr -e 1000 -c 3 -i 12 -a 3 -x {1.0 2.0 -1 ------- null}
+ -t 0.5096 -s 1 -d 2 -p cbr -e 1000 -c 3 -i 13 -a 3 -x {1.0 2.0 12 ------- null}
- -t 0.5096 -s 1 -d 2 -p cbr -e 1000 -c 3 -i 13 -a 3 -x {1.0 2.0 12 ------- null}
h -t 0.5096 -s 1 -d 2 -p cbr -e 1000 -c 3 -i 13 -a 3 -x {1.0 2.0 -1 ------- null}
+ -t 0.5104 -s 1 -d 2 -p cbr -e 1000 -c 3 -i 14 -a 3 -x {1.0 2.0 13 ------- null}
- -t 0.5104 -s 1 -d 2 -p cbr -e 1000 -c 3 -i 14 -a 3 -x {1.0 2.0 13 ------- null}
h -t 0.5104 -s 1 -d 2 -p cbr -e 1000 -c 3 -i 14 -a 3 -x {1.0 2.0 -1 ------- null}
r -t 0.5108 -s 1 -d 2 -p cbr -e 1000 -c 3 -i 0 -a 3 -x {1.0 2.0 0 ------- null}
r -t 0.5108 -s 0 -d 1 -p tcp -e 1000 -c 1 -i 1 -a 1 -x {0.0 3.0 0 ------- null}
+ -t 0.5108 -s 1 -d 2 -p tcp -e 1000 -c 1 -i 1 -a 1 -x {0.0 3.0 0 ------- null}
- -t 0.5112 -s 1 -d 2 -p tcp -e 1000 -c 1 -i 1 -a 1 -x {0.0 3.0 0 ------- null}
h -t 0.5112 -s 1 -d 2 -p tcp -e 1000 -c 1 -i 1 -a 1 -x {0.0 3.0 -1 ------- null}
+ -t 0.5112 -s 1 -d 2 -p cbr -e 1000 -c 3 -i 15 -a 3 -x {1.0 2.0 14 ------- null}
r -t 0.5116 -s 1 -d 2 -p cbr -e 1000 -c 3 -i 2 -a 3 -x {1.0 2.0 1 ------- null}
- -t 0.512 -s 1 -d 2 -p cbr -e 1000 -c 3 -i 15 -a 3 -x {1.0 2.0 14 ------- null}
h -t 0.512 -s 1 -d 2 -p cbr -e 1000 -c 3 -i 15 -a 3 -x {1.0 2.0 -1 ------- null}
+ -t 0.512 -s 1 -d 2 -p cbr -e 1000 -c 3 -i 16 -a 3 -x {1.0 2.0 15 ------- null}
r -t 0.5124 -s 1 -d 2 -p cbr -e 1000 -c 3 -i 3 -a 3 -x {1.0 2.0 2 ------- null}
- -t 0.5128 -s 1 -d 2 -p cbr -e 1000 -c 3 -i 16 -a 3 -x {1.0 2.0 15 ------- null}
h -t 0.5128 -s 1 -d 2 -p cbr -e 1000 -c 3 -i 16 -a 3 -x {1.0 2.0 -1 ------- null}
+ -t 0.5128 -s 1 -d 2 -p cbr -e 1000 -c 3 -i 17 -a 3 -x {1.0 2.0 16 ------- null}
r -t 0.5132 -s 1 -d 2 -p cbr -e 1000 -c 3 -i 4 -a 3 -x {1.0 2.0 3 ------- null}
- -t 0.5136 -s 1 -d 2 -p cbr -e 1000 -c 3 -i 17 -a 3 -x {1.0 2.0 16 ------- null}
h -t 0.5136 -s 1 -d 2 -p cbr -e 1000 -c 3 -i 17 -a 3 -x {1.0 2.0 -1 ------- null}
+ -t 0.5136 -s 1 -d 2 -p cbr -e 1000 -c 3 -i 18 -a 3 -x {1.0 2.0 17 ------- null}
r -t 0.514 -s 1 -d 2 -p cbr -e 1000 -c 3 -i 5 -a 3 -x {1.0 2.0 4 ------- null}
- -t 0.5144 -s 1 -d 2 -p cbr -e 1000 -c 3 -i 18 -a 3 -x {1.0 2.0 17 ------- null}
h -t 0.5144 -s 1 -d 2 -p cbr -e 1000 -c 3 -i 18 -a 3 -x {1.0 2.0 -1 ------- null}
+ -t 0.5144 -s 1 -d 2 -p cbr -e 1000 -c 3 -i 19 -a 3 -x {1.0 2.0 18 ------- null}
r -t 0.5148 -s 1 -d 2 -p cbr -e 1000 -c 3 -i 6 -a 3 -x {1.0 2.0 5 ------- null}
- -t 0.5152 -s 1 -d 2 -p cbr -e 1000 -c 3 -i 19 -a 3 -x {1.0 2.0 18 ------- null}
h -t 0.5152 -s 1 -d 2 -p cbr -e 1000 -c 3 -i 19 -a 3 -x {1.0 2.0 -1 ------- null}
+ -t 0.5152 -s 1 -d 2 -p cbr -e 1000 -c 3 -i 20 -a 3 -x {1.0 2.0 19 ------- null}
r -t 0.5156 -s 1 -d 2 -p cbr -e 1000 -c 3 -i 7 -a 3 -x {1.0 2.0 6 ------- null}
- -t 0.516 -s 1 -d 2 -p cbr -e 1000 -c 3 -i 20 -a 3 -x {1.0 2.0 19 ------- null}
h -t 0.516 -s 1 -d 2 -p cbr -e 1000 -c 3 -i 20 -a 3 -x {1.0 2.0 -1 ------- null}
+ -t 0.516 -s 1 -d 2 -p cbr -e 1000 -c 3 -i 21 -a 3 -x {1.0 2.0 20 ------- null}
r -t 0.5164 -s 1 -d 2 -p cbr -e 1000 -c 3 -i 8 -a 3 -x {1.0 2.0 7 ------- null}
- -t 0.5168 -s 1 -d 2 -p cbr -e 1000 -c 3 -i 21 -a 3 -x {1.0 2.0 20 ------- null}
h -t 0.5168 -s 1 -d 2 -p cbr -e 1000 -c 3 -i 21 -a 3 -x {1.0 2.0 -1 ------- null}
+ -t 0.5168 -s 1 -d 2 -p cbr -e 1000 -c 3 -i 22 -a 3 -x {1.0 2.0 21 ------- null}
r -t 0.5172 -s 1 -d 2 -p cbr -e 1000 -c 3 -i 9 -a 3 -x {1.0 2.0 8 ------- null}
- -t 0.517600000000001 -s 1 -d 2 -p cbr -e 1000 -c 3 -i 22 -a 3 -x {1.0 2.0 21 ------- null}
h -t 0.517600000000001 -s 1 -d 2 -p cbr -e 1000 -c 3 -i 22 -a 3 -x {1.0 2.0 -1 ------- null}
+ -t 0.517600000000001 -s 1 -d 2 -p cbr -e 1000 -c 3 -i 23 -a 3 -x {1.0 2.0 22 ------- null}
r -t 0.518 -s 1 -d 2 -p cbr -e 1000 -c 3 -i 10 -a 3 -x {1.0 2.0 9 ------- null}
- -t 0.518400000000001 -s 1 -d 2 -p cbr -e 1000 -c 3 -i 23 -a 3 -x {1.0 2.0 22 ------- null}
h -t 0.518400000000001 -s 1 -d 2 -p cbr -e 1000 -c 3 -i 23 -a 3 -x {1.0 2.0 -1 ------- null}
+ -t 0.518400000000001 -s 1 -d 2 -p cbr -e 1000 -c 3 -i 24 -a 3 -x {1.0 2.0 23 ------- null}
r -t 0.5188 -s 1 -d 2 -p cbr -e 1000 -c 3 -i 11 -a 3 -x {1.0 2.0 10 ------- null}
- -t 0.519200000000001 -s 1 -d 2 -p cbr -e 1000 -c 3 -i 24 -a 3 -x {1.0 2.0 23 ------- null}
h -t 0.519200000000001 -s 1 -d 2 -p cbr -e 1000 -c 3 -i 24 -a 3 -x {1.0 2.0 -1 ------- null}
+ -t 0.519200000000001 -s 1 -d 2 -p cbr -e 1000 -c 3 -i 25 -a 3 -x {1.0 2.0 24 ------- null}
r -t 0.5196 -s 1 -d 2 -p cbr -e 1000 -c 3 -i 12 -a 3 -x {1.0 2.0 11 ------- null}
- -t 0.520000000000001 -s 1 -d 2 -p cbr -e 1000 -c 3 -i 25 -a 3 -x {1.0 2.0 24 ------- null}
h -t 0.520000000000001 -s 1 -d 2 -p cbr -e 1000 -c 3 -i 25 -a 3 -x {1.0 2.0 -1 ------- null}
+ -t 0.520000000000001 -s 1 -d 2 -p cbr -e 1000 -c 3 -i 26 -a 3 -x {1.0 2.0 25 ------- null}
r -t 0.5204 -s 1 -d 2 -p cbr -e 1000 -c 3 -i 13 -a 3 -x {1.0 2.0 12 ------- null}
- -t 0.520800000000001 -s 1 -d 2 -p cbr -e 1000 -c 3 -i 26 -a 3 -x {1.0 2.0 25 ------- null}
h -t 0.520800000000001 -s 1 -d 2 -p cbr -e 1000 -c 3 -i 26 -a 3 -x {1.0 2.0 -1 ------- null}
+ -t 0.520800000000001 -s 1 -d 2 -p cbr -e 1000 -c 3 -i 27 -a 3 -x {1.0 2.0 26 ------- null}
r -t 0.5212 -s 1 -d 2 -p cbr -e 1000 -c 3 -i 14 -a 3 -x {1.0 2.0 13 ------- null}
- -t 0.521600000000001 -s 1 -d 2 -p cbr -e 1000 -c 3 -i 27 -a 3 -x {1.0 2.0 26 ------- null}
h -t 0.521600000000001 -s 1 -d 2 -p cbr -e 1000 -c 3 -i 27 -a 3 -x {1.0 2.0 -1 ------- null}
+ -t 0.521600000000001 -s 1 -d 2 -p cbr -e 1000 -c 3 -i 28 -a 3 -x {1.0 2.0 27 ------- null}
r -t 0.522 -s 1 -d 2 -p tcp -e 1000 -c 1 -i 1 -a 1 -x {0.0 3.0 0 ------- null}
+ -t 0.522 -s 2 -d 3 -p tcp -e 1000 -c 1 -i 1 -a 1 -x {0.0 3.0 0 ------- null}
- -t 0.522 -s 2 -d 3 -p tcp -e 1000 -c 1 -i 1 -a 1 -x {0.0 3.0 0 ------- null}
h -t 0.522 -s 2 -d 3 -p tcp -e 1000 -c 1 -i 1 -a 1 -x {0.0 3.0 -1 ------- null}
- -t 0.522400000000001 -s 1 -d 2 -p cbr -e 1000 -c 3 -i 28 -a 3 -x {1.0 2.0 27 ------- null}
h -t 0.522400000000001 -s 1 -d 2 -p cbr -e 1000 -c 3 -i 28 -a 3 -x {1.0 2.0 -1 ------- null}
+ -t 0.522400000000001 -s 1 -d 2 -p cbr -e 1000 -c 3 -i 29 -a 3 -x {1.0 2.0 28 ------- null}
r -t 0.5228 -s 1 -d 2 -p cbr -e 1000 -c 3 -i 15 -a 3 -x {1.0 2.0 14 ------- null}
- -t 0.523200000000001 -s 1 -d 2 -p cbr -e 1000 -c 3 -i 29 -a 3 -x {1.0 2.0 28 ------- null}
h -t 0.523200000000001 -s 1 -d 2 -p cbr -e 1000 -c 3 -i 29 -a 3 -x {1.0 2.0 -1 ------- null}
+ -t 0.523200000000001 -s 1 -d 2 -p cbr -e 1000 -c 3 -i 30 -a 3 -x {1.0 2.0 29 ------- null}
r -t 0.5236 -s 1 -d 2 -p cbr -e 1000 -c 3 -i 16 -a 3 -x {1.0 2.0 15 ------- null}
- -t 0.524000000000001 -s 1 -d 2 -p cbr -e 1000 -c 3 -i 30 -a 3 -x {1.0 2.0 29 ------- null}
h -t 0.524000000000001 -s 1 -d 2 -p cbr -e 1000 -c 3 -i 30 -a 3 -x {1.0 2.0 -1 ------- null}
+ -t 0.524000000000001 -s 1 -d 2 -p cbr -e 1000 -c 3 -i 31 -a 3 -x {1.0 2.0 30 ------- null}
r -t 0.5244 -s 1 -d 2 -p cbr -e 1000 -c 3 -i 17 -a 3 -x {1.0 2.0 16 ------- null}
- -t 0.524800000000001 -s 1 -d 2 -p cbr -e 1000 -c 3 -i 31 -a 3 -x {1.0 2.0 30 ------- null}
h -t 0.524800000000001 -s 1 -d 2 -p cbr -e 1000 -c 3 -i 31 -a 3 -x {1.0 2.0 -1 ------- null}
+ -t 0.524800000000001 -s 1 -d 2 -p cbr -e 1000 -c 3 -i 32 -a 3 -x {1.0 2.0 31 ------- null}
r -t 0.5252 -s 1 -d 2 -p cbr -e 1000 -c 3 -i 18 -a 3 -x {1.0 2.0 17 ------- null}
- -t 0.525600000000001 -s 1 -d 2 -p cbr -e 1000 -c 3 -i 32 -a 3 -x {1.0 2.0 31 ------- null}
h -t 0.525600000000001 -s 1 -d 2 -p cbr -e 1000 -c 3 -i 32 -a 3 -x {1.0 2.0 -1 ------- null}
+ -t 0.525600000000001 -s 1 -d 2 -p cbr -e 1000 -c 3 -i 33 -a 3 -x {1.0 2.0 32 ------- null}
r -t 0.526 -s 1 -d 2 -p cbr -e 1000 -c 3 -i 19 -a 3 -x {1.0 2.0 18 ------- null}
- -t 0.526400000000001 -s 1 -d 2 -p cbr -e 1000 -c 3 -i 33 -a 3 -x {1.0 2.0 32 ------- null}
h -t 0.526400000000001 -s 1 -d 2 -p cbr -e 1000 -c 3 -i 33 -a 3 -x {1.0 2.0 -1 ------- null}
+ -t 0.526400000000001 -s 1 -d 2 -p cbr -e 1000 -c 3 -i 34 -a 3 -x {1.0 2.0 33 ------- null}
r -t 0.5268 -s 1 -d 2 -p cbr -e 1000 -c 3 -i 20 -a 3 -x {1.0 2.0 19 ------- null}
- -t 0.527200000000001 -s 1 -d 2 -p cbr -e 1000 -c 3 -i 34 -a 3 -x {1.0 2.0 33 ------- null}
h -t 0.527200000000001 -s 1 -d 2 -p cbr -e 1000 -c 3 -i 34 -a 3 -x {1.0 2.0 -1 ------- null}
+ -t 0.527200000000001 -s 1 -d 2 -p cbr -e 1000 -c 3 -i 35 -a 3 -x {1.0 2.0 34 ------- null}
r -t 0.527600000000001 -s 1 -d 2 -p cbr -e 1000 -c 3 -i 21 -a 3 -x {1.0 2.0 20 ------- null}
- -t 0.528000000000001 -s 1 -d 2 -p cbr -e 1000 -c 3 -i 35 -a 3 -x {1.0 2.0 34 ------- null}
h -t 0.528000000000001 -s 1 -d 2 -p cbr -e 1000 -c 3 -i 35 -a 3 -x {1.0 2.0 -1 ------- null}
+ -t 0.528000000000001 -s 1 -d 2 -p cbr -e 1000 -c 3 -i 36 -a 3 -x {1.0 2.0 35 ------- null}
r -t 0.528400000000001 -s 1 -d 2 -p cbr -e 1000 -c 3 -i 22 -a 3 -x {1.0 2.0 21 ------- null}
- -t 0.528800000000001 -s 1 -d 2 -p cbr -e 1000 -c 3 -i 36 -a 3 -x {1.0 2.0 35 ------- null}
h -t 0.528800000000001 -s 1 -d 2 -p cbr -e 1000 -c 3 -i 36 -a 3 -x {1.0 2.0 -1 ------- null}
+ -t 0.528800000000001 -s 1 -d 2 -p cbr -e 1000 -c 3 -i 37 -a 3 -x {1.0 2.0 36 ------- null}
r -t 0.529200000000001 -s 1 -d 2 -p cbr -e 1000 -c 3 -i 23 -a 3 -x {1.0 2.0 22 ------- null}
- -t 0.529600000000001 -s 1 -d 2 -p cbr -e 1000 -c 3 -i 37 -a 3 -x {1.0 2.0 36 ------- null}
h -t 0.529600000000001 -s 1 -d 2 -p cbr -e 1000 -c 3 -i 37 -a 3 -x {1.0 2.0 -1 ------- null}
+ -t 0.529600000000001 -s 1 -d 2 -p cbr -e 1000 -c 3 -i 38 -a 3 -x {1.0 2.0 37 ------- null}
r -t 0.530000000000001 -s 1 -d 2 -p cbr -e 1000 -c 3 -i 24 -a 3 -x {1.0 2.0 23 ------- null}
- -t 0.530400000000001 -s 1 -d 2 -p cbr -e 1000 -c 3 -i 38 -a 3 -x {1.0 2.0 37 ------- null}
h -t 0.530400000000001 -s 1 -d 2 -p cbr -e 1000 -c 3 -i 38 -a 3 -x {1.0 2.0 -1 ------- null}
+ -t 0.530400000000001 -s 1 -d 2 -p cbr -e 1000 -c 3 -i 39 -a 3 -x {1.0 2.0 38 ------- null}
r -t 0.530800000000001 -s 1 -d 2 -p cbr -e 1000 -c 3 -i 25 -a 3 -x {1.0 2.0 24 ------- null}
- -t 0.531200000000001 -s 1 -d 2 -p cbr -e 1000 -c 3 -i 39 -a 3 -x {1.0 2.0 38 ------- null}
h -t 0.531200000000001 -s 1 -d 2 -p cbr -e 1000 -c 3 -i 39 -a 3 -x {1.0 2.0 -1 ------- null}
+ -t 0.531200000000001 -s 1 -d 2 -p cbr -e 1000 -c 3 -i 40 -a 3 -x {1.0 2.0 39 ------- null}
r -t 0.531600000000001 -s 1 -d 2 -p cbr -e 1000 -c 3 -i 26 -a 3 -x {1.0 2.0 25 ------- null}
- -t 0.532000000000001 -s 1 -d 2 -p cbr -e 1000 -c 3 -i 40 -a 3 -x {1.0 2.0 39 ------- null}
h -t 0.532000000000001 -s 1 -d 2 -p cbr -e 1000 -c 3 -i 40 -a 3 -x {1.0 2.0 -1 ------- null}
+ -t 0.532000000000001 -s 1 -d 2 -p cbr -e 1000 -c 3 -i 41 -a 3 -x {1.0 2.0 40 ------- null}
r -t 0.532400000000001 -s 1 -d 2 -p cbr -e 1000 -c 3 -i 27 -a 3 -x {1.0 2.0 26 ------- null}
r -t 0.5328 -s 2 -d 3 -p tcp -e 1000 -c 1 -i 1 -a 1 -x {0.0 3.0 0 ------- null}
+ -t 0.5328 -s 3 -d 2 -p ack -e 40 -c 1 -i 42 -a 1 -x {3.0 0.0 0 ------- null}
- -t 0.5328 -s 3 -d 2 -p ack -e 40 -c 1 -i 42 -a 1 -x {3.0 0.0 0 ------- null}
h -t 0.5328 -s 3 -d 2 -p ack -e 40 -c 1 -i 42 -a 1 -x {3.0 0.0 -1 ------- null}
- -t 0.532800000000001 -s 1 -d 2 -p cbr -e 1000 -c 3 -i 41 -a 3 -x {1.0 2.0 40 ------- null}
h -t 0.532800000000001 -s 1 -d 2 -p cbr -e 1000 -c 3 -i 41 -a 3 -x {1.0 2.0 -1 ------- null}
+ -t 0.532800000000001 -s 1 -d 2 -p cbr -e 1000 -c 3 -i 43 -a 3 -x {1.0 2.0 41 ------- null}
r -t 0.533200000000001 -s 1 -d 2 -p cbr -e 1000 -c 3 -i 28 -a 3 -x {1.0 2.0 27 ------- null}
- -t 0.533600000000001 -s 1 -d 2 -p cbr -e 1000 -c 3 -i 43 -a 3 -x {1.0 2.0 41 ------- null}
h -t 0.533600000000001 -s 1 -d 2 -p cbr -e 1000 -c 3 -i 43 -a 3 -x {1.0 2.0 -1 ------- null}
+ -t 0.533600000000001 -s 1 -d 2 -p cbr -e 1000 -c 3 -i 44 -a 3 -x {1.0 2.0 42 ------- null}
r -t 0.534000000000001 -s 1 -d 2 -p cbr -e 1000 -c 3 -i 29 -a 3 -x {1.0 2.0 28 ------- null}
- -t 0.534400000000001 -s 1 -d 2 -p cbr -e 1000 -c 3 -i 44 -a 3 -x {1.0 2.0 42 ------- null}
h -t 0.534400000000001 -s 1 -d 2 -p cbr -e 1000 -c 3 -i 44 -a 3 -x {1.0 2.0 -1 ------- null}
+ -t 0.534400000000001 -s 1 -d 2 -p cbr -e 1000 -c 3 -i 45 -a 3 -x {1.0 2.0 43 ------- null}
r -t 0.534800000000001 -s 1 -d 2 -p cbr -e 1000 -c 3 -i 30 -a 3 -x {1.0 2.0 29 ------- null}
- -t 0.535200000000001 -s 1 -d 2 -p cbr -e 1000 -c 3 -i 45 -a 3 -x {1.0 2.0 43 ------- null}
h -t 0.535200000000001 -s 1 -d 2 -p cbr -e 1000 -c 3 -i 45 -a 3 -x {1.0 2.0 -1 ------- null}
+ -t 0.535200000000001 -s 1 -d 2 -p cbr -e 1000 -c 3 -i 46 -a 3 -x {1.0 2.0 44 ------- null}
r -t 0.535600000000001 -s 1 -d 2 -p cbr -e 1000 -c 3 -i 31 -a 3 -x {1.0 2.0 30 ------- null}
- -t 0.536000000000001 -s 1 -d 2 -p cbr -e 1000 -c 3 -i 46 -a 3 -x {1.0 2.0 44 ------- null}
h -t 0.536000000000001 -s 1 -d 2 -p cbr -e 1000 -c 3 -i 46 -a 3 -x {1.0 2.0 -1 ------- null}
+ -t 0.536000000000001 -s 1 -d 2 -p cbr -e 1000 -c 3 -i 47 -a 3 -x {1.0 2.0 45 ------- null}
r -t 0.536400000000001 -s 1 -d 2 -p cbr -e 1000 -c 3 -i 32 -a 3 -x {1.0 2.0 31 ------- null}
- -t 0.536800000000001 -s 1 -d 2 -p cbr -e 1000 -c 3 -i 47 -a 3 -x {1.0 2.0 45 ------- null}
h -t 0.536800000000001 -s 1 -d 2 -p cbr -e 1000 -c 3 -i 47 -a 3 -x {1.0 2.0 -1 ------- null}
+ -t 0.536800000000001 -s 1 -d 2 -p cbr -e 1000 -c 3 -i 48 -a 3 -x {1.0 2.0 46 ------- null}
r -t 0.537200000000001 -s 1 -d 2 -p cbr -e 1000 -c 3 -i 33 -a 3 -x {1.0 2.0 32 ------- null}
- -t 0.537600000000001 -s 1 -d 2 -p cbr -e 1000 -c 3 -i 48 -a 3 -x {1.0 2.0 46 ------- null}
h -t 0.537600000000001 -s 1 -d 2 -p cbr -e 1000 -c 3 -i 48 -a 3 -x {1.0 2.0 -1 ------- null}
+ -t 0.537600000000001 -s 1 -d 2 -p cbr -e 1000 -c 3 -i 49 -a 3 -x {1.0 2.0 47 ------- null}
r -t 0.538000000000001 -s 1 -d 2 -p cbr -e 1000 -c 3 -i 34 -a 3 -x {1.0 2.0 33 ------- null}
- -t 0.538400000000001 -s 1 -d 2 -p cbr -e 1000 -c 3 -i 49 -a 3 -x {1.0 2.0 47 ------- null}
h -t 0.538400000000001 -s 1 -d 2 -p cbr -e 1000 -c 3 -i 49 -a 3 -x {1.0 2.0 -1 ------- null}
+ -t 0.538400000000001 -s 1 -d 2 -p cbr -e 1000 -c 3 -i 50 -a 3 -x {1.0 2.0 48 ------- null}
r -t 0.538800000000001 -s 1 -d 2 -p cbr -e 1000 -c 3 -i 35 -a 3 -x {1.0 2.0 34 ------- null}
- -t 0.539200000000001 -s 1 -d 2 -p cbr -e 1000 -c 3 -i 50 -a 3 -x {1.0 2.0 48 ------- null}
h -t 0.539200000000001 -s 1 -d 2 -p cbr -e 1000 -c 3 -i 50 -a 3 -x {1.0 2.0 -1 ------- null}
+ -t 0.539200000000001 -s 1 -d 2 -p cbr -e 1000 -c 3 -i 51 -a 3 -x {1.0 2.0 49 ------- null}
r -t 0.539600000000001 -s 1 -d 2 -p cbr -e 1000 -c 3 -i 36 -a 3 -x {1.0 2.0 35 ------- null}
- -t 0.540000000000001 -s 1 -d 2 -p cbr -e 1000 -c 3 -i 51 -a 3 -x {1.0 2.0 49 ------- null}
h -t 0.540000000000001 -s 1 -d 2 -p cbr -e 1000 -c 3 -i 51 -a 3 -x {1.0 2.0 -1 ------- null}
+ -t 0.540000000000001 -s 1 -d 2 -p cbr -e 1000 -c 3 -i 52 -a 3 -x {1.0 2.0 50 ------- null}
r -t 0.540400000000001 -s 1 -d 2 -p cbr -e 1000 -c 3 -i 37 -a 3 -x {1.0 2.0 36 ------- null}
- -t 0.540800000000001 -s 1 -d 2 -p cbr -e 1000 -c 3 -i 52 -a 3 -x {1.0 2.0 50 ------- null}
h -t 0.540800000000001 -s 1 -d 2 -p cbr -e 1000 -c 3 -i 52 -a 3 -x {1.0 2.0 -1 ------- null}
+ -t 0.540800000000001 -s 1 -d 2 -p cbr -e 1000 -c 3 -i 53 -a 3 -x {1.0 2.0 51 ------- null}
r -t 0.541200000000001 -s 1 -d 2 -p cbr -e 1000 -c 3 -i 38 -a 3 -x {1.0 2.0 37 ------- null}
- -t 0.541600000000001 -s 1 -d 2 -p cbr -e 1000 -c 3 -i 53 -a 3 -x {1.0 2.0 51 ------- null}
h -t 0.541600000000001 -s 1 -d 2 -p cbr -e 1000 -c 3 -i 53 -a 3 -x {1.0 2.0 -1 ------- null}
+ -t 0.541600000000001 -s 1 -d 2 -p cbr -e 1000 -c 3 -i 54 -a 3 -x {1.0 2.0 52 ------- null}
r -t 0.542000000000001 -s 1 -d 2 -p cbr -e 1000 -c 3 -i 39 -a 3 -x {1.0 2.0 38 ------- null}
- -t 0.542400000000001 -s 1 -d 2 -p cbr -e 1000 -c 3 -i 54 -a 3 -x {1.0 2.0 52 ------- null}
h -t 0.542400000000001 -s 1 -d 2 -p cbr -e 1000 -c 3 -i 54 -a 3 -x {1.0 2.0 -1 ------- null}
+ -t 0.542400000000001 -s 1 -d 2 -p cbr -e 1000 -c 3 -i 55 -a 3 -x {1.0 2.0 53 ------- null}
r -t 0.542800000000001 -s 1 -d 2 -p cbr -e 1000 -c 3 -i 40 -a 3 -x {1.0 2.0 39 ------- null}
r -t 0.542832 -s 3 -d 2 -p ack -e 40 -c 1 -i 42 -a 1 -x {3.0 0.0 0 ------- null}
+ -t 0.542832 -s 2 -d 1 -p ack -e 40 -c 1 -i 42 -a 1 -x {3.0 0.0 0 ------- null}
- -t 0.542832 -s 2 -d 1 -p ack -e 40 -c 1 -i 42 -a 1 -x {3.0 0.0 0 ------- null}
h -t 0.542832 -s 2 -d 1 -p ack -e 40 -c 1 -i 42 -a 1 -x {3.0 0.0 -1 ------- null}
- -t 0.543200000000001 -s 1 -d 2 -p cbr -e 1000 -c 3 -i 55 -a 3 -x {1.0 2.0 53 ------- null}
h -t 0.543200000000001 -s 1 -d 2 -p cbr -e 1000 -c 3 -i 55 -a 3 -x {1.0 2.0 -1 ------- null}
+ -t 0.543200000000001 -s 1 -d 2 -p cbr -e 1000 -c 3 -i 56 -a 3 -x {1.0 2.0 54 ------- null}
r -t 0.543600000000001 -s 1 -d 2 -p cbr -e 1000 -c 3 -i 41 -a 3 -x {1.0 2.0 40 ------- null}
- -t 0.544000000000001 -s 1 -d 2 -p cbr -e 1000 -c 3 -i 56 -a 3 -x {1.0 2.0 54 ------- null}
h -t 0.544000000000001 -s 1 -d 2 -p cbr -e 1000 -c 3 -i 56 -a 3 -x {1.0 2.0 -1 ------- null}
+ -t 0.544000000000001 -s 1 -d 2 -p cbr -e 1000 -c 3 -i 57 -a 3 -x {1.0 2.0 55 ------- null}
r -t 0.544400000000001 -s 1 -d 2 -p cbr -e 1000 -c 3 -i 43 -a 3 -x {1.0 2.0 41 ------- null}
- -t 0.544800000000001 -s 1 -d 2 -p cbr -e 1000 -c 3 -i 57 -a 3 -x {1.0 2.0 55 ------- null}
h -t 0.544800000000001 -s 1 -d 2 -p cbr -e 1000 -c 3 -i 57 -a 3 -x {1.0 2.0 -1 ------- null}
+ -t 0.544800000000001 -s 1 -d 2 -p cbr -e 1000 -c 3 -i 58 -a 3 -x {1.0 2.0 56 ------- null}
r -t 0.545200000000001 -s 1 -d 2 -p cbr -e 1000 -c 3 -i 44 -a 3 -x {1.0 2.0 42 ------- null}
- -t 0.545600000000001 -s 1 -d 2 -p cbr -e 1000 -c 3 -i 58 -a 3 -x {1.0 2.0 56 ------- null}
h -t 0.545600000000001 -s 1 -d 2 -p cbr -e 1000 -c 3 -i 58 -a 3 -x {1.0 2.0 -1 ------- null}
+ -t 0.545600000000001 -s 1 -d 2 -p cbr -e 1000 -c 3 -i 59 -a 3 -x {1.0 2.0 57 ------- null}
r -t 0.546000000000001 -s 1 -d 2 -p cbr -e 1000 -c 3 -i 45 -a 3 -x {1.0 2.0 43 ------- null}
- -t 0.546400000000001 -s 1 -d 2 -p cbr -e 1000 -c 3 -i 59 -a 3 -x {1.0 2.0 57 ------- null}
h -t 0.546400000000001 -s 1 -d 2 -p cbr -e 1000 -c 3 -i 59 -a 3 -x {1.0 2.0 -1 ------- null}
+ -t 0.546400000000001 -s 1 -d 2 -p cbr -e 1000 -c 3 -i 60 -a 3 -x {1.0 2.0 58 ------- null}
r -t 0.546800000000001 -s 1 -d 2 -p cbr -e 1000 -c 3 -i 46 -a 3 -x {1.0 2.0 44 ------- null}
- -t 0.547200000000001 -s 1 -d 2 -p cbr -e 1000 -c 3 -i 60 -a 3 -x {1.0 2.0 58 ------- null}
h -t 0.547200000000001 -s 1 -d 2 -p cbr -e 1000 -c 3 -i 60 -a 3 -x {1.0 2.0 -1 ------- null}
+ -t 0.547200000000001 -s 1 -d 2 -p cbr -e 1000 -c 3 -i 61 -a 3 -x {1.0 2.0 59 ------- null}
r -t 0.547600000000001 -s 1 -d 2 -p cbr -e 1000 -c 3 -i 47 -a 3 -x {1.0 2.0 45 ------- null}
- -t 0.548000000000001 -s 1 -d 2 -p cbr -e 1000 -c 3 -i 61 -a 3 -x {1.0 2.0 59 ------- null}
h -t 0.548000000000001 -s 1 -d 2 -p cbr -e 1000 -c 3 -i 61 -a 3 -x {1.0 2.0 -1 ------- null}
+ -t 0.548000000000001 -s 1 -d 2 -p cbr -e 1000 -c 3 -i 62 -a 3 -x {1.0 2.0 60 ------- null}
r -t 0.548400000000001 -s 1 -d 2 -p cbr -e 1000 -c 3 -i 48 -a 3 -x {1.0 2.0 46 ------- null}
- -t 0.548800000000001 -s 1 -d 2 -p cbr -e 1000 -c 3 -i 62 -a 3 -x {1.0 2.0 60 ------- null}
h -t 0.548800000000001 -s 1 -d 2 -p cbr -e 1000 -c 3 -i 62 -a 3 -x {1.0 2.0 -1 ------- null}
+ -t 0.548800000000001 -s 1 -d 2 -p cbr -e 1000 -c 3 -i 63 -a 3 -x {1.0 2.0 61 ------- null}
r -t 0.549200000000001 -s 1 -d 2 -p cbr -e 1000 -c 3 -i 49 -a 3 -x {1.0 2.0 47 ------- null}
- -t 0.549600000000001 -s 1 -d 2 -p cbr -e 1000 -c 3 -i 63 -a 3 -x {1.0 2.0 61 ------- null}
h -t 0.549600000000001 -s 1 -d 2 -p cbr -e 1000 -c 3 -i 63 -a 3 -x {1.0 2.0 -1 ------- null}
+ -t 0.549600000000001 -s 1 -d 2 -p cbr -e 1000 -c 3 -i 64 -a 3 -x {1.0 2.0 62 ------- null}
r -t 0.550000000000001 -s 1 -d 2 -p cbr -e 1000 -c 3 -i 50 -a 3 -x {1.0 2.0 48 ------- null}
- -t 0.550400000000001 -s 1 -d 2 -p cbr -e 1000 -c 3 -i 64 -a 3 -x {1.0 2.0 62 ------- null}
h -t 0.550400000000001 -s 1 -d 2 -p cbr -e 1000 -c 3 -i 64 -a 3 -x {1.0 2.0 -1 ------- null}
+ -t 0.550400000000001 -s 1 -d 2 -p cbr -e 1000 -c 3 -i 65 -a 3 -x {1.0 2.0 63 ------- null}
r -t 0.550800000000001 -s 1 -d 2 -p cbr -e 1000 -c 3 -i 51 -a 3 -x {1.0 2.0 49 ------- null}
- -t 0.551200000000001 -s 1 -d 2 -p cbr -e 1000 -c 3 -i 65 -a 3 -x {1.0 2.0 63 ------- null}
h -t 0.551200000000001 -s 1 -d 2 -p cbr -e 1000 -c 3 -i 65 -a 3 -x {1.0 2.0 -1 ------- null}
+ -t 0.551200000000001 -s 1 -d 2 -p cbr -e 1000 -c 3 -i 66 -a 3 -x {1.0 2.0 64 ------- null}
r -t 0.551600000000001 -s 1 -d 2 -p cbr -e 1000 -c 3 -i 52 -a 3 -x {1.0 2.0 50 ------- null}
- -t 0.552000000000001 -s 1 -d 2 -p cbr -e 1000 -c 3 -i 66 -a 3 -x {1.0 2.0 64 ------- null}
h -t 0.552000000000001 -s 1 -d 2 -p cbr -e 1000 -c 3 -i 66 -a 3 -x {1.0 2.0 -1 ------- null}
+ -t 0.552000000000001 -s 1 -d 2 -p cbr -e 1000 -c 3 -i 67 -a 3 -x {1.0 2.0 65 ------- null}
r -t 0.552400000000001 -s 1 -d 2 -p cbr -e 1000 -c 3 -i 53 -a 3 -x {1.0 2.0 51 ------- null}
- -t 0.552800000000002 -s 1 -d 2 -p cbr -e 1000 -c 3 -i 67 -a 3 -x {1.0 2.0 65 ------- null}
h -t 0.552800000000002 -s 1 -d 2 -p cbr -e 1000 -c 3 -i 67 -a 3 -x {1.0 2.0 -1 ------- null}
+ -t 0.552800000000002 -s 1 -d 2 -p cbr -e 1000 -c 3 -i 68 -a 3 -x {1.0 2.0 66 ------- null}
r -t 0.552864 -s 2 -d 1 -p ack -e 40 -c 1 -i 42 -a 1 -x {3.0 0.0 0 ------- null}
+ -t 0.552864 -s 1 -d 0 -p ack -e 40 -c 1 -i 42 -a 1 -x {3.0 0.0 0 ------- null}
- -t 0.552864 -s 1 -d 0 -p ack -e 40 -c 1 -i 42 -a 1 -x {3.0 0.0 0 ------- null}
h -t 0.552864 -s 1 -d 0 -p ack -e 40 -c 1 -i 42 -a 1 -x {3.0 0.0 -1 ------- null}
r -t 0.553200000000001 -s 1 -d 2 -p cbr -e 1000 -c 3 -i 54 -a 3 -x {1.0 2.0 52 ------- null}
- -t 0.553600000000002 -s 1 -d 2 -p cbr -e 1000 -c 3 -i 68 -a 3 -x {1.0 2.0 66 ------- null}
h -t 0.553600000000002 -s 1 -d 2 -p cbr -e 1000 -c 3 -i 68 -a 3 -x {1.0 2.0 -1 ------- null}
+ -t 0.553600000000002 -s 1 -d 2 -p cbr -e 1000 -c 3 -i 69 -a 3 -x {1.0 2.0 67 ------- null}
r -t 0.554000000000001 -s 1 -d 2 -p cbr -e 1000 -c 3 -i 55 -a 3 -x {1.0 2.0 53 ------- null}
- -t 0.554400000000002 -s 1 -d 2 -p cbr -e 1000 -c 3 -i 69 -a 3 -x {1.0 2.0 67 ------- null}
h -t 0.554400000000002 -s 1 -d 2 -p cbr -e 1000 -c 3 -i 69 -a 3 -x {1.0 2.0 -1 ------- null}
+ -t 0.554400000000002 -s 1 -d 2 -p cbr -e 1000 -c 3 -i 70 -a 3 -x {1.0 2.0 68 ------- null}
r -t 0.554800000000001 -s 1 -d 2 -p cbr -e 1000 -c 3 -i 56 -a 3 -x {1.0 2.0 54 ------- null}
- -t 0.555200000000002 -s 1 -d 2 -p cbr -e 1000 -c 3 -i 70 -a 3 -x {1.0 2.0 68 ------- null}
h -t 0.555200000000002 -s 1 -d 2 -p cbr -e 1000 -c 3 -i 70 -a 3 -x {1.0 2.0 -1 ------- null}
+ -t 0.555200000000002 -s 1 -d 2 -p cbr -e 1000 -c 3 -i 71 -a 3 -x {1.0 2.0 69 ------- null}
r -t 0.555600000000001 -s 1 -d 2 -p cbr -e 1000 -c 3 -i 57 -a 3 -x {1.0 2.0 55 ------- null}
- -t 0.556000000000002 -s 1 -d 2 -p cbr -e 1000 -c 3 -i 71 -a 3 -x {1.0 2.0 69 ------- null}
h -t 0.556000000000002 -s 1 -d 2 -p cbr -e 1000 -c 3 -i 71 -a 3 -x {1.0 2.0 -1 ------- null}
+ -t 0.556000000000002 -s 1 -d 2 -p cbr -e 1000 -c 3 -i 72 -a 3 -x {1.0 2.0 70 ------- null}
r -t 0.556400000000001 -s 1 -d 2 -p cbr -e 1000 -c 3 -i 58 -a 3 -x {1.0 2.0 56 ------- null}
- -t 0.556800000000002 -s 1 -d 2 -p cbr -e 1000 -c 3 -i 72 -a 3 -x {1.0 2.0 70 ------- null}
h -t 0.556800000000002 -s 1 -d 2 -p cbr -e 1000 -c 3 -i 72 -a 3 -x {1.0 2.0 -1 ------- null}
+ -t 0.556800000000002 -s 1 -d 2 -p cbr -e 1000 -c 3 -i 73 -a 3 -x {1.0 2.0 71 ------- null}
r -t 0.557200000000001 -s 1 -d 2 -p cbr -e 1000 -c 3 -i 59 -a 3 -x {1.0 2.0 57 ------- null}
- -t 0.557600000000002 -s 1 -d 2 -p cbr -e 1000 -c 3 -i 73 -a 3 -x {1.0 2.0 71 ------- null}
h -t 0.557600000000002 -s 1 -d 2 -p cbr -e 1000 -c 3 -i 73 -a 3 -x {1.0 2.0 -1 ------- null}
+ -t 0.557600000000002 -s 1 -d 2 -p cbr -e 1000 -c 3 -i 74 -a 3 -x {1.0 2.0 72 ------- null}
r -t 0.558000000000001 -s 1 -d 2 -p cbr -e 1000 -c 3 -i 60 -a 3 -x {1.0 2.0 58 ------- null}
- -t 0.558400000000002 -s 1 -d 2 -p cbr -e 1000 -c 3 -i 74 -a 3 -x {1.0 2.0 72 ------- null}
h -t 0.558400000000002 -s 1 -d 2 -p cbr -e 1000 -c 3 -i 74 -a 3 -x {1.0 2.0 -1 ------- null}
+ -t 0.558400000000002 -s 1 -d 2 -p cbr -e 1000 -c 3 -i 75 -a 3 -x {1.0 2.0 73 ------- null}
r -t 0.558800000000001 -s 1 -d 2 -p cbr -e 1000 -c 3 -i 61 -a 3 -x {1.0 2.0 59 ------- null}
- -t 0.559200000000002 -s 1 -d 2 -p cbr -e 1000 -c 3 -i 75 -a 3 -x {1.0 2.0 73 ------- null}
h -t 0.559200000000002 -s 1 -d 2 -p cbr -e 1000 -c 3 -i 75 -a 3 -x {1.0 2.0 -1 ------- null}
+ -t 0.559200000000002 -s 1 -d 2 -p cbr -e 1000 -c 3 -i 76 -a 3 -x {1.0 2.0 74 ------- null}
r -t 0.559600000000001 -s 1 -d 2 -p cbr -e 1000 -c 3 -i 62 -a 3 -x {1.0 2.0 60 ------- null}
- -t 0.560000000000002 -s 1 -d 2 -p cbr -e 1000 -c 3 -i 76 -a 3 -x {1.0 2.0 74 ------- null}
h -t 0.560000000000002 -s 1 -d 2 -p cbr -e 1000 -c 3 -i 76 -a 3 -x {1.0 2.0 -1 ------- null}
+ -t 0.560000000000002 -s 1 -d 2 -p cbr -e 1000 -c 3 -i 77 -a 3 -x {1.0 2.0 75 ------- null}
r -t 0.560400000000001 -s 1 -d 2 -p cbr -e 1000 -c 3 -i 63 -a 3 -x {1.0 2.0 61 ------- null}
- -t 0.560800000000002 -s 1 -d 2 -p cbr -e 1000 -c 3 -i 77 -a 3 -x {1.0 2.0 75 ------- null}
h -t 0.560800000000002 -s 1 -d 2 -p cbr -e 1000 -c 3 -i 77 -a 3 -x {1.0 2.0 -1 ------- null}
+ -t 0.560800000000002 -s 1 -d 2 -p cbr -e 1000 -c 3 -i 78 -a 3 -x {1.0 2.0 76 ------- null}
r -t 0.561200000000001 -s 1 -d 2 -p cbr -e 1000 -c 3 -i 64 -a 3 -x {1.0 2.0 62 ------- null}
- -t 0.561600000000002 -s 1 -d 2 -p cbr -e 1000 -c 3 -i 78 -a 3 -x {1.0 2.0 76 ------- null}
h -t 0.561600000000002 -s 1 -d 2 -p cbr -e 1000 -c 3 -i 78 -a 3 -x {1.0 2.0 -1 ------- null}
+ -t 0.561600000000002 -s 1 -d 2 -p cbr -e 1000 -c 3 -i 79 -a 3 -x {1.0 2.0 77 ------- null}
r -t 0.562000000000001 -s 1 -d 2 -p cbr -e 1000 -c 3 -i 65 -a 3 -x {1.0 2.0 63 ------- null}
- -t 0.562400000000002 -s 1 -d 2 -p cbr -e 1000 -c 3 -i 79 -a 3 -x {1.0 2.0 77 ------- null}
h -t 0.562400000000002 -s 1 -d 2 -p cbr -e 1000 -c 3 -i 79 -a 3 -x {1.0 2.0 -1 ------- null}
+ -t 0.562400000000002 -s 1 -d 2 -p cbr -e 1000 -c 3 -i 80 -a 3 -x {1.0 2.0 78 ------- null}
r -t 0.562800000000002 -s 1 -d 2 -p cbr -e 1000 -c 3 -i 66 -a 3 -x {1.0 2.0 64 ------- null}
r -t 0.562896000000001 -s 1 -d 0 -p ack -e 40 -c 1 -i 42 -a 1 -x {3.0 0.0 0 ------- null}
+ -t 0.562896000000001 -s 0 -d 1 -p tcp -e 1000 -c 1 -i 81 -a 1 -x {0.0 3.0 1 ------- null}
- -t 0.562896000000001 -s 0 -d 1 -p tcp -e 1000 -c 1 -i 81 -a 1 -x {0.0 3.0 1 ------- null}
h -t 0.562896000000001 -s 0 -d 1 -p tcp -e 1000 -c 1 -i 81 -a 1 -x {0.0 3.0 -1 ------- null}
- -t 0.563200000000002 -s 1 -d 2 -p cbr -e 1000 -c 3 -i 80 -a 3 -x {1.0 2.0 78 ------- null}