V -t * -v 1.0a5 -a 0
A -t * -n 1 -p 0 -o 0x7fffffff -c 30 -a 1
A -t * -h 1 -m 1073741823 -s 0
c -t * -i 1 -n Blue
c -t * -i 2 -n Red
c -t * -i 3 -n Green
n -t * -a 4 -s 4 -S UP -v circle -c black -i black
n -t * -a 0 -s 0 -S UP -v circle -c black -i black
n -t * -a 5 -s 5 -S UP -v circle -c black -i black
n -t * -a 1 -s 1 -S UP -v circle -c black -i black
n -t * -a 2 -s 2 -S UP -v circle -c black -i black
n -t * -a 3 -s 3 -S UP -v circle -c black -i black
l -t * -s 0 -d 1 -S UP -r 10000000 -D 0.01 -c black -o right-down
l -t * -s 4 -d 1 -S UP -r 10000000 -D 0.01 -c black -o right-up
l -t * -s 1 -d 2 -S UP -r 1000000 -D 0.01 -c black -o right
l -t * -s 2 -d 3 -S UP -r 10000000 -D 0.01 -c black -o right-up
l -t * -s 2 -d 5 -S UP -r 10000000 -D 0.01 -c black -o right-down
+ -t 0.5 -s 1 -d 2 -p cbr -e 1000 -c 3 -i 0 -a 3 -x {1.0 2.0 0 ------- null}
- -t 0.5 -s 1 -d 2 -p cbr -e 1000 -c 3 -i 0 -a 3 -x {1.0 2.0 0 ------- null}
h -t 0.5 -s 1 -d 2 -p cbr -e 1000 -c 3 -i 0 -a 3 -x {1.0 2.0 -1 ------- null}
+ -t 0.5 -s 1 -d 2 -p cbr -e 1000 -c 3 -i 1 -a 3 -x {1.0 2.0 1 ------- null}
+ -t 0.5 -s 0 -d 1 -p tcp -e 40 -c 1 -i 2 -a 1 -x {0.0 3.0 0 ------- null}
- -t 0.5 -s 0 -d 1 -p tcp -e 40 -c 1 -i 2 -a 1 -x {0.0 3.0 0 ------- null}
h -t 0.5 -s 0 -d 1 -p tcp -e 40 -c 1 -i 2 -a 1 -x {0.0 3.0 -1 ------- null}
+ -t 0.5 -s 4 -d 1 -p tcp -e 40 -c 2 -i 3 -a 2 -x {4.0 5.0 0 ------- null}
- -t 0.5 -s 4 -d 1 -p tcp -e 40 -c 2 -i 3 -a 2 -x {4.0 5.0 0 ------- null}
h -t 0.5 -s 4 -d 1 -p tcp -e 40 -c 2 -i 3 -a 2 -x {4.0 5.0 -1 ------- null}
+ -t 0.502 -s 1 -d 2 -p cbr -e 1000 -c 3 -i 4 -a 3 -x {1.0 2.0 2 ------- null}
+ -t 0.502 -s 1 -d 2 -p cbr -e 1000 -c 3 -i 5 -a 3 -x {1.0 2.0 3 ------- null}
+ -t 0.504 -s 1 -d 2 -p cbr -e 1000 -c 3 -i 6 -a 3 -x {1.0 2.0 4 ------- null}
+ -t 0.504 -s 1 -d 2 -p cbr -e 1000 -c 3 -i 7 -a 3 -x {1.0 2.0 5 ------- null}
+ -t 0.506 -s 1 -d 2 -p cbr -e 1000 -c 3 -i 8 -a 3 -x {1.0 2.0 6 ------- null}
+ -t 0.506 -s 1 -d 2 -p cbr -e 1000 -c 3 -i 9 -a 3 -x {1.0 2.0 7 ------- null}
- -t 0.508 -s 1 -d 2 -p cbr -e 1000 -c 3 -i 1 -a 3 -x {1.0 2.0 1 ------- null}
h -t 0.508 -s 1 -d 2 -p cbr -e 1000 -c 3 -i 1 -a 3 -x {1.0 2.0 -1 ------- null}
+ -t 0.508 -s 1 -d 2 -p cbr -e 1000 -c 3 -i 10 -a 3 -x {1.0 2.0 8 ------- null}
+ -t 0.508 -s 1 -d 2 -p cbr -e 1000 -c 3 -i 11 -a 3 -x {1.0 2.0 9 ------- null}
+ -t 0.51 -s 1 -d 2 -p cbr -e 1000 -c 3 -i 12 -a 3 -x {1.0 2.0 10 ------- null}
+ -t 0.51 -s 1 -d 2 -p cbr -e 1000 -c 3 -i 13 -a 3 -x {1.0 2.0 11 ------- null}
r -t 0.510032 -s 0 -d 1 -p tcp -e 40 -c 1 -i 2 -a 1 -x {0.0 3.0 0 ------- null}
+ -t 0.510032 -s 1 -d 2 -p tcp -e 40 -c 1 -i 2 -a 1 -x {0.0 3.0 0 ------- null}
r -t 0.510032 -s 4 -d 1 -p tcp -e 40 -c 2 -i 3 -a 2 -x {4.0 5.0 0 ------- null}
+ -t 0.510032 -s 1 -d 2 -p tcp -e 40 -c 2 -i 3 -a 2 -x {4.0 5.0 0 ------- null}
+ -t 0.512 -s 1 -d 2 -p cbr -e 1000 -c 3 -i 14 -a 3 -x {1.0 2.0 12 ------- null}
+ -t 0.512 -s 1 -d 2 -p cbr -e 1000 -c 3 -i 15 -a 3 -x {1.0 2.0 13 ------- null}
+ -t 0.514 -s 1 -d 2 -p cbr -e 1000 -c 3 -i 16 -a 3 -x {1.0 2.0 14 ------- null}
+ -t 0.514 -s 1 -d 2 -p cbr -e 1000 -c 3 -i 17 -a 3 -x {1.0 2.0 15 ------- null}
- -t 0.516 -s 1 -d 2 -p cbr -e 1000 -c 3 -i 4 -a 3 -x {1.0 2.0 2 ------- null}
h -t 0.516 -s 1 -d 2 -p cbr -e 1000 -c 3 -i 4 -a 3 -x {1.0 2.0 -1 ------- null}
+ -t 0.516 -s 1 -d 2 -p cbr -e 1000 -c 3 -i 18 -a 3 -x {1.0 2.0 16 ------- null}
+ -t 0.516 -s 1 -d 2 -p cbr -e 1000 -c 3 -i 19 -a 3 -x {1.0 2.0 17 ------- null}
r -t 0.518 -s 1 -d 2 -p cbr -e 1000 -c 3 -i 0 -a 3 -x {1.0 2.0 0 ------- null}
+ -t 0.518 -s 1 -d 2 -p cbr -e 1000 -c 3 -i 20 -a 3 -x {1.0 2.0 18 ------- null}
+ -t 0.518 -s 1 -d 2 -p cbr -e 1000 -c 3 -i 21 -a 3 -x {1.0 2.0 19 ------- null}
+ -t 0.52 -s 1 -d 2 -p cbr -e 1000 -c 3 -i 22 -a 3 -x {1.0 2.0 20 ------- null}
+ -t 0.52 -s 1 -d 2 -p cbr -e 1000 -c 3 -i 23 -a 3 -x {1.0 2.0 21 ------- null}
+ -t 0.522 -s 1 -d 2 -p cbr -e 1000 -c 3 -i 24 -a 3 -x {1.0 2.0 22 ------- null}
+ -t 0.522 -s 1 -d 2 -p cbr -e 1000 -c 3 -i 25 -a 3 -x {1.0 2.0 23 ------- null}
- -t 0.524 -s 1 -d 2 -p cbr -e 1000 -c 3 -i 5 -a 3 -x {1.0 2.0 3 ------- null}
h -t 0.524 -s 1 -d 2 -p cbr -e 1000 -c 3 -i 5 -a 3 -x {1.0 2.0 -1 ------- null}
+ -t 0.524 -s 1 -d 2 -p cbr -e 1000 -c 3 -i 26 -a 3 -x {1.0 2.0 24 ------- null}
+ -t 0.524 -s 1 -d 2 -p cbr -e 1000 -c 3 -i 27 -a 3 -x {1.0 2.0 25 ------- null}
r -t 0.526 -s 1 -d 2 -p cbr -e 1000 -c 3 -i 1 -a 3 -x {1.0 2.0 1 ------- null}
+ -t 0.526 -s 1 -d 2 -p cbr -e 1000 -c 3 -i 28 -a 3 -x {1.0 2.0 26 ------- null}
+ -t 0.526 -s 1 -d 2 -p cbr -e 1000 -c 3 -i 29 -a 3 -x {1.0 2.0 27 ------- null}
+ -t 0.528 -s 1 -d 2 -p cbr -e 1000 -c 3 -i 30 -a 3 -x {1.0 2.0 28 ------- null}
+ -t 0.528 -s 1 -d 2 -p cbr -e 1000 -c 3 -i 31 -a 3 -x {1.0 2.0 29 ------- null}
+ -t 0.53 -s 1 -d 2 -p cbr -e 1000 -c 3 -i 32 -a 3 -x {1.0 2.0 30 ------- null}
+ -t 0.53 -s 1 -d 2 -p cbr -e 1000 -c 3 -i 33 -a 3 -x {1.0 2.0 31 ------- null}
- -t 0.532 -s 1 -d 2 -p cbr -e 1000 -c 3 -i 6 -a 3 -x {1.0 2.0 4 ------- null}
h -t 0.532 -s 1 -d 2 -p cbr -e 1000 -c 3 -i 6 -a 3 -x {1.0 2.0 -1 ------- null}
+ -t 0.532 -s 1 -d 2 -p cbr -e 1000 -c 3 -i 34 -a 3 -x {1.0 2.0 32 ------- null}
+ -t 0.532 -s 1 -d 2 -p cbr -e 1000 -c 3 -i 35 -a 3 -x {1.0 2.0 33 ------- null}
r -t 0.534 -s 1 -d 2 -p cbr -e 1000 -c 3 -i 4 -a 3 -x {1.0 2.0 2 ------- null}
+ -t 0.534 -s 1 -d 2 -p cbr -e 1000 -c 3 -i 36 -a 3 -x {1.0 2.0 34 ------- null}
+ -t 0.534 -s 1 -d 2 -p cbr -e 1000 -c 3 -i 37 -a 3 -x {1.0 2.0 35 ------- null}
+ -t 0.536 -s 1 -d 2 -p cbr -e 1000 -c 3 -i 38 -a 3 -x {1.0 2.0 36 ------- null}
+ -t 0.536 -s 1 -d 2 -p cbr -e 1000 -c 3 -i 39 -a 3 -x {1.0 2.0 37 ------- null}
+ -t 0.538 -s 1 -d 2 -p cbr -e 1000 -c 3 -i 40 -a 3 -x {1.0 2.0 38 ------- null}
+ -t 0.538 -s 1 -d 2 -p cbr -e 1000 -c 3 -i 41 -a 3 -x {1.0 2.0 39 ------- null}
- -t 0.54 -s 1 -d 2 -p cbr -e 1000 -c 3 -i 7 -a 3 -x {1.0 2.0 5 ------- null}
h -t 0.54 -s 1 -d 2 -p cbr -e 1000 -c 3 -i 7 -a 3 -x {1.0 2.0 -1 ------- null}
+ -t 0.54 -s 1 -d 2 -p cbr -e 1000 -c 3 -i 42 -a 3 -x {1.0 2.0 40 ------- null}
+ -t 0.54 -s 1 -d 2 -p cbr -e 1000 -c 3 -i 43 -a 3 -x {1.0 2.0 41 ------- null}
r -t 0.542 -s 1 -d 2 -p cbr -e 1000 -c 3 -i 5 -a 3 -x {1.0 2.0 3 ------- null}
+ -t 0.542 -s 1 -d 2 -p cbr -e 1000 -c 3 -i 44 -a 3 -x {1.0 2.0 42 ------- null}
+ -t 0.542 -s 1 -d 2 -p cbr -e 1000 -c 3 -i 45 -a 3 -x {1.0 2.0 43 ------- null}
+ -t 0.544 -s 1 -d 2 -p cbr -e 1000 -c 3 -i 46 -a 3 -x {1.0 2.0 44 ------- null}
+ -t 0.544 -s 1 -d 2 -p cbr -e 1000 -c 3 -i 47 -a 3 -x {1.0 2.0 45 ------- null}
+ -t 0.546 -s 1 -d 2 -p cbr -e 1000 -c 3 -i 48 -a 3 -x {1.0 2.0 46 ------- null}
+ -t 0.546 -s 1 -d 2 -p cbr -e 1000 -c 3 -i 49 -a 3 -x {1.0 2.0 47 ------- null}
- -t 0.548 -s 1 -d 2 -p cbr -e 1000 -c 3 -i 8 -a 3 -x {1.0 2.0 6 ------- null}
h -t 0.548 -s 1 -d 2 -p cbr -e 1000 -c 3 -i 8 -a 3 -x {1.0 2.0 -1 ------- null}
+ -t 0.548 -s 1 -d 2 -p cbr -e 1000 -c 3 -i 50 -a 3 -x {1.0 2.0 48 ------- null}
+ -t 0.548 -s 1 -d 2 -p cbr -e 1000 -c 3 -i 51 -a 3 -x {1.0 2.0 49 ------- null}
r -t 0.55 -s 1 -d 2 -p cbr -e 1000 -c 3 -i 6 -a 3 -x {1.0 2.0 4 ------- null}
+ -t 0.55 -s 1 -d 2 -p cbr -e 1000 -c 3 -i 52 -a 3 -x {1.0 2.0 50 ------- null}
+ -t 0.55 -s 1 -d 2 -p cbr -e 1000 -c 3 -i 53 -a 3 -x {1.0 2.0 51 ------- null}
+ -t 0.552 -s 1 -d 2 -p cbr -e 1000 -c 3 -i 54 -a 3 -x {1.0 2.0 52 ------- null}
+ -t 0.552 -s 1 -d 2 -p cbr -e 1000 -c 3 -i 55 -a 3 -x {1.0 2.0 53 ------- null}
+ -t 0.554 -s 1 -d 2 -p cbr -e 1000 -c 3 -i 56 -a 3 -x {1.0 2.0 54 ------- null}
d -t 0.554 -s 1 -d 2 -p cbr -e 1000 -c 3 -i 56 -a 3 -x {1.0 2.0 54 ------- null}
+ -t 0.554 -s 1 -d 2 -p cbr -e 1000 -c 3 -i 57 -a 3 -x {1.0 2.0 55 ------- null}
d -t 0.554 -s 1 -d 2 -p cbr -e 1000 -c 3 -i 57 -a 3 -x {1.0 2.0 55 ------- null}
- -t 0.556 -s 1 -d 2 -p cbr -e 1000 -c 3 -i 9 -a 3 -x {1.0 2.0 7 ------- null}
h -t 0.556 -s 1 -d 2 -p cbr -e 1000 -c 3 -i 9 -a 3 -x {1.0 2.0 -1 ------- null}
+ -t 0.556 -s 1 -d 2 -p cbr -e 1000 -c 3 -i 58 -a 3 -x {1.0 2.0 56 ------- null}
+ -t 0.556 -s 1 -d 2 -p cbr -e 1000 -c 3 -i 59 -a 3 -x {1.0 2.0 57 ------- null}
d -t 0.556 -s 1 -d 2 -p cbr -e 1000 -c 3 -i 59 -a 3 -x {1.0 2.0 57 ------- null}
r -t 0.558 -s 1 -d 2 -p cbr -e 1000 -c 3 -i 7 -a 3 -x {1.0 2.0 5 ------- null}
+ -t 0.558 -s 1 -d 2 -p cbr -e 1000 -c 3 -i 60 -a 3 -x {1.0 2.0 58 ------- null}
d -t 0.558 -s 1 -d 2 -p cbr -e 1000 -c 3 -i 60 -a 3 -x {1.0 2.0 58 ------- null}
+ -t 0.558 -s 1 -d 2 -p cbr -e 1000 -c 3 -i 61 -a 3 -x {1.0 2.0 59 ------- null}
d -t 0.558 -s 1 -d 2 -p cbr -e 1000 -c 3 -i 61 -a 3 -x {1.0 2.0 59 ------- null}
+ -t 0.56 -s 1 -d 2 -p cbr -e 1000 -c 3 -i 62 -a 3 -x {1.0 2.0 60 ------- null}
d -t 0.56 -s 1 -d 2 -p cbr -e 1000 -c 3 -i 62 -a 3 -x {1.0 2.0 60 ------- null}
+ -t 0.56 -s 1 -d 2 -p cbr -e 1000 -c 3 -i 63 -a 3 -x {1.0 2.0 61 ------- null}
d -t 0.56 -s 1 -d 2 -p cbr -e 1000 -c 3 -i 63 -a 3 -x {1.0 2.0 61 ------- null}
+ -t 0.562 -s 1 -d 2 -p cbr -e 1000 -c 3 -i 64 -a 3 -x {1.0 2.0 62 ------- null}
d -t 0.562 -s 1 -d 2 -p cbr -e 1000 -c 3 -i 64 -a 3 -x {1.0 2.0 62 ------- null}
+ -t 0.562 -s 1 -d 2 -p cbr -e 1000 -c 3 -i 65 -a 3 -x {1.0 2.0 63 ------- null}
d -t 0.562 -s 1 -d 2 -p cbr -e 1000 -c 3 -i 65 -a 3 -x {1.0 2.0 63 ------- null}
- -t 0.564 -s 1 -d 2 -p cbr -e 1000 -c 3 -i 10 -a 3 -x {1.0 2.0 8 ------- null}
h -t 0.564 -s 1 -d 2 -p cbr -e 1000 -c 3 -i 10 -a 3 -x {1.0 2.0 -1 ------- null}
+ -t 0.564 -s 1 -d 2 -p cbr -e 1000 -c 3 -i 66 -a 3 -x {1.0 2.0 64 ------- null}
+ -t 0.564 -s 1 -d 2 -p cbr -e 1000 -c 3 -i 67 -a 3 -x {1.0 2.0 65 ------- null}
d -t 0.564 -s 1 -d 2 -p cbr -e 1000 -c 3 -i 67 -a 3 -x {1.0 2.0 65 ------- null}
r -t 0.566 -s 1 -d 2 -p cbr -e 1000 -c 3 -i 8 -a 3 -x {1.0 2.0 6 ------- null}
+ -t 0.566 -s 1 -d 2 -p cbr -e 1000 -c 3 -i 68 -a 3 -x {1.0 2.0 66 ------- null}
d -t 0.566 -s 1 -d 2 -p cbr -e 1000 -c 3 -i 68 -a 3 -x {1.0 2.0 66 ------- null}
+ -t 0.566 -s 1 -d 2 -p cbr -e 1000 -c 3 -i 69 -a 3 -x {1.0 2.0 67 ------- null}
d -t 0.566 -s 1 -d 2 -p cbr -e 1000 -c 3 -i 69 -a 3 -x {1.0 2.0 67 ------- null}
+ -t 0.568 -s 1 -d 2 -p cbr -e 1000 -c 3 -i 70 -a 3 -x {1.0 2.0 68 ------- null}
d -t 0.568 -s 1 -d 2 -p cbr -e 1000 -c 3 -i 70 -a 3 -x {1.0 2.0 68 ------- null}
+ -t 0.568 -s 1 -d 2 -p cbr -e 1000 -c 3 -i 71 -a 3 -x {1.0 2.0 69 ------- null}
d -t 0.568 -s 1 -d 2 -p cbr -e 1000 -c 3 -i 71 -a 3 -x {1.0 2.0 69 ------- null}
+ -t 0.57 -s 1 -d 2 -p cbr -e 1000 -c 3 -i 72 -a 3 -x {1.0 2.0 70 ------- null}
d -t 0.57 -s 1 -d 2 -p cbr -e 1000 -c 3 -i 72 -a 3 -x {1.0 2.0 70 ------- null}
+ -t 0.57 -s 1 -d 2 -p cbr -e 1000 -c 3 -i 73 -a 3 -x {1.0 2.0 71 ------- null}
d -t 0.57 -s 1 -d 2 -p cbr -e 1000 -c 3 -i 73 -a 3 -x {1.0 2.0 71 ------- null}
- -t 0.572 -s 1 -d 2 -p cbr -e 1000 -c 3 -i 11 -a 3 -x {1.0 2.0 9 ------- null}
h -t 0.572 -s 1 -d 2 -p cbr -e 1000 -c 3 -i 11 -a 3 -x {1.0 2.0 -1 ------- null}
+ -t 0.572 -s 1 -d 2 -p cbr -e 1000 -c 3 -i 74 -a 3 -x {1.0 2.0 72 ------- null}
+ -t 0.572 -s 1 -d 2 -p cbr -e 1000 -c 3 -i 75 -a 3 -x {1.0 2.0 73 ------- null}
d -t 0.572 -s 1 -d 2 -p cbr -e 1000 -c 3 -i 75 -a 3 -x {1.0 2.0 73 ------- null}
r -t 0.574 -s 1 -d 2 -p cbr -e 1000 -c 3 -i 9 -a 3 -x {1.0 2.0 7 ------- null}
+ -t 0.574 -s 1 -d 2 -p cbr -e 1000 -c 3 -i 76 -a 3 -x {1.0 2.0 74 ------- null}
d -t 0.574 -s 1 -d 2 -p cbr -e 1000 -c 3 -i 76 -a 3 -x {1.0 2.0 74 ------- null}
+ -t 0.574 -s 1 -d 2 -p cbr -e 1000 -c 3 -i 77 -a 3 -x {1.0 2.0 75 ------- null}
d -t 0.574 -s 1 -d 2 -p cbr -e 1000 -c 3 -i 77 -a 3 -x {1.0 2.0 75 ------- null}
+ -t 0.576 -s 1 -d 2 -p cbr -e 1000 -c 3 -i 78 -a 3 -x {1.0 2.0 76 ------- null}
d -t 0.576 -s 1 -d 2 -p cbr -e 1000 -c 3 -i 78 -a 3 -x {1.0 2.0 76 ------- null}
+ -t 0.576 -s 1 -d 2 -p cbr -e 1000 -c 3 -i 79 -a 3 -x {1.0 2.0 77 ------- null}
d -t 0.576 -s 1 -d 2 -p cbr -e 1000 -c 3 -i 79 -a 3 -x {1.0 2.0 77 ------- null}
+ -t 0.578 -s 1 -d 2 -p cbr -e 1000 -c 3 -i 80 -a 3 -x {1.0 2.0 78 ------- null}
d -t 0.578 -s 1 -d 2 -p cbr -e 1000 -c 3 -i 80 -a 3 -x {1.0 2.0 78 ------- null}
+ -t 0.578 -s 1 -d 2 -p cbr -e 1000 -c 3 -i 81 -a 3 -x {1.0 2.0 79 ------- null}
d -t 0.578 -s 1 -d 2 -p cbr -e 1000 -c 3 -i 81 -a 3 -x {1.0 2.0 79 ------- null}
- -t 0.58 -s 1 -d 2 -p cbr -e 1000 -c 3 -i 12 -a 3 -x {1.0 2.0 10 ------- null}
h -t 0.58 -s 1 -d 2 -p cbr -e 1000 -c 3 -i 12 -a 3 -x {1.0 2.0 -1 ------- null}
+ -t 0.58 -s 1 -d 2 -p cbr -e 1000 -c 3 -i 82 -a 3 -x {1.0 2.0 80 ------- null}
+ -t 0.58 -s 1 -d 2 -p cbr -e 1000 -c 3 -i 83 -a 3 -x {1.0 2.0 81 ------- null}
d -t 0.58 -s 1 -d 2 -p cbr -e 1000 -c 3 -i 83 -a 3 -x {1.0 2.0 81 ------- null}
r -t 0.582 -s 1 -d 2 -p cbr -e 1000 -c 3 -i 10 -a 3 -x {1.0 2.0 8 ------- null}
+ -t 0.582 -s 1 -d 2 -p cbr -e 1000 -c 3 -i 84 -a 3 -x {1.0 2.0 82 ------- null}
d -t 0.582 -s 1 -d 2 -p cbr -e 1000 -c 3 -i 84 -a 3 -x {1.0 2.0 82 ------- null}
+ -t 0.582 -s 1 -d 2 -p cbr -e 1000 -c 3 -i 85 -a 3 -x {1.0 2.0 83 ------- null}
d -t 0.582 -s 1 -d 2 -p cbr -e 1000 -c 3 -i 85 -a 3 -x {1.0 2.0 83 ------- null}
+ -t 0.584 -s 1 -d 2 -p cbr -e 1000 -c 3 -i 86 -a 3 -x {1.0 2.0 84 ------- null}
d -t 0.584 -s 1 -d 2 -p cbr -e 1000 -c 3 -i 86 -a 3 -x {1.0 2.0 84 ------- null}
+ -t 0.584 -s 1 -d 2 -p cbr -e 1000 -c 3 -i 87 -a 3 -x {1.0 2.0 85 ------- null}
d -t 0.584 -s 1 -d 2 -p cbr -e 1000 -c 3 -i 87 -a 3 -x {1.0 2.0 85 ------- null}
+ -t 0.586 -s 1 -d 2 -p cbr -e 1000 -c 3 -i 88 -a 3 -x {1.0 2.0 86 ------- null}
d -t 0.586 -s 1 -d 2 -p cbr -e 1000 -c 3 -i 88 -a 3 -x {1.0 2.0 86 ------- null}
+ -t 0.586 -s 1 -d 2 -p cbr -e 1000 -c 3 -i 89 -a 3 -x {1.0 2.0 87 ------- null}
d -t 0.586 -s 1 -d 2 -p cbr -e 1000 -c 3 -i 89 -a 3 -x {1.0 2.0 87 ------- null}
- -t 0.588 -s 1 -d 2 -p cbr -e 1000 -c 3 -i 13 -a 3 -x {1.0 2.0 11 ------- null}
h -t 0.588 -s 1 -d 2 -p cbr -e 1000 -c 3 -i 13 -a 3 -x {1.0 2.0 -1 ------- null}
+ -t 0.588 -s 1 -d 2 -p cbr -e 1000 -c 3 -i 90 -a 3 -x {1.0 2.0 88 ------- null}
+ -t 0.588 -s 1 -d 2 -p cbr -e 1000 -c 3 -i 91 -a 3 -x {1.0 2.0 89 ------- null}
d -t 0.588 -s 1 -d 2 -p cbr -e 1000 -c 3 -i 91 -a 3 -x {1.0 2.0 89 ------- null}
r -t 0.59 -s 1 -d 2 -p cbr -e 1000 -c 3 -i 11 -a 3 -x {1.0 2.0 9 ------- null}
+ -t 0.59 -s 1 -d 2 -p cbr -e 1000 -c 3 -i 92 -a 3 -x {1.0 2.0 90 ------- null}
d -t 0.59 -s 1 -d 2 -p cbr -e 1000 -c 3 -i 92 -a 3 -x {1.0 2.0 90 ------- null}
+ -t 0.59 -s 1 -d 2 -p cbr -e 1000 -c 3 -i 93 -a 3 -x {1.0 2.0 91 ------- null}
d -t 0.59 -s 1 -d 2 -p cbr -e 1000 -c 3 -i 93 -a 3 -x {1.0 2.0 91 ------- null}
+ -t 0.592 -s 1 -d 2 -p cbr -e 1000 -c 3 -i 94 -a 3 -x {1.0 2.0 92 ------- null}
d -t 0.592 -s 1 -d 2 -p cbr -e 1000 -c 3 -i 94 -a 3 -x {1.0 2.0 92 ------- null}
+ -t 0.592 -s 1 -d 2 -p cbr -e 1000 -c 3 -i 95 -a 3 -x {1.0 2.0 93 ------- null}
d -t 0.592 -s 1 -d 2 -p cbr -e 1000 -c 3 -i 95 -a 3 -x {1.0 2.0 93 ------- null}
+ -t 0.594 -s 1 -d 2 -p cbr -e 1000 -c 3 -i 96 -a 3 -x {1.0 2.0 94 ------- null}
d -t 0.594 -s 1 -d 2 -p cbr -e 1000 -c 3 -i 96 -a 3 -x {1.0 2.0 94 ------- null}
+ -t 0.594 -s 1 -d 2 -p cbr -e 1000 -c 3 -i 97 -a 3 -x {1.0 2.0 95 ------- null}
d -t 0.594 -s 1 -d 2 -p cbr -e 1000 -c 3 -i 97 -a 3 -x {1.0 2.0 95 ------- null}
- -t 0.596 -s 1 -d 2 -p tcp -e 40 -c 1 -i 2 -a 1 -x {0.0 3.0 0 ------- null}
h -t 0.596 -s 1 -d 2 -p tcp -e 40 -c 1 -i 2 -a 1 -x {0.0 3.0 -1 ------- null}
+ -t 0.596 -s 1 -d 2 -p cbr -e 1000 -c 3 -i 98 -a 3 -x {1.0 2.0 96 ------- null}
+ -t 0.596 -s 1 -d 2 -p cbr -e 1000 -c 3 -i 99 -a 3 -x {1.0 2.0 97 ------- null}
d -t 0.596 -s 1 -d 2 -p cbr -e 1000 -c 3 -i 99 -a 3 -x {1.0 2.0 97 ------- null}
- -t 0.59632 -s 1 -d 2 -p tcp -e 40 -c 2 -i 3 -a 2 -x {4.0 5.0 0 ------- null}
h -t 0.59632 -s 1 -d 2 -p tcp -e 40 -c 2 -i 3 -a 2 -x {4.0 5.0 -1 ------- null}
- -t 0.59664 -s 1 -d 2 -p cbr -e 1000 -c 3 -i 14 -a 3 -x {1.0 2.0 12 ------- null}
h -t 0.59664 -s 1 -d 2 -p cbr -e 1000 -c 3 -i 14 -a 3 -x {1.0 2.0 -1 ------- null}
r -t 0.598 -s 1 -d 2 -p cbr -e 1000 -c 3 -i 12 -a 3 -x {1.0 2.0 10 ------- null}
+ -t 0.598 -s 1 -d 2 -p cbr -e 1000 -c 3 -i 100 -a 3 -x {1.0 2.0 98 ------- null}
+ -t 0.598 -s 1 -d 2 -p cbr -e 1000 -c 3 -i 101 -a 3 -x {1.0 2.0 99 ------- null}
+ -t 0.6 -s 1 -d 2 -p cbr -e 1000 -c 3 -i 102 -a 3 -x {1.0 2.0 100 ------- null}
d -t 0.6 -s 1 -d 2 -p cbr -e 1000 -c 3 -i 102 -a 3 -x {1.0 2.0 100 ------- null}
+ -t 0.6 -s 1 -d 2 -p cbr -e 1000 -c 3 -i 103 -a 3 -x {1.0 2.0 101 ------- null}
d -t 0.6 -s 1 -d 2 -p cbr -e 1000 -c 3 -i 103 -a 3 -x {1.0 2.0 101 ------- null}
+ -t 0.602 -s 1 -d 2 -p cbr -e 1000 -c 3 -i 104 -a 3 -x {1.0 2.0 102 ------- null}
d -t 0.602 -s 1 -d 2 -p cbr -e 1000 -c 3 -i 104 -a 3 -x {1.0 2.0 102 ------- null}
+ -t 0.602 -s 1 -d 2 -p cbr -e 1000 -c 3 -i 105 -a 3 -x {1.0 2.0 103 ------- null}
d -t 0.602 -s 1 -d 2 -p cbr -e 1000 -c 3 -i 105 -a 3 -x {1.0 2.0 103 ------- null}
+ -t 0.604 -s 1 -d 2 -p cbr -e 1000 -c 3 -i 106 -a 3 -x {1.0 2.0 104 ------- null}
d -t 0.604 -s 1 -d 2 -p cbr -e 1000 -c 3 -i 106 -a 3 -x {1.0 2.0 104 ------- null}
+ -t 0.604 -s 1 -d 2 -p cbr -e 1000 -c 3 -i 107 -a 3 -x {1.0 2.0 105 ------- null}
d -t 0.604 -s 1 -d 2 -p cbr -e 1000 -c 3 -i 107 -a 3 -x {1.0 2.0 105 ------- null}
- -t 0.60464 -s 1 -d 2 -p cbr -e 1000 -c 3 -i 15 -a 3 -x {1.0 2.0 13 ------- null}
h -t 0.60464 -s 1 -d 2 -p cbr -e 1000 -c 3 -i 15 -a 3 -x {1.0 2.0 -1 ------- null}
r -t 0.606 -s 1 -d 2 -p cbr -e 1000 -c 3 -i 13 -a 3 -x {1.0 2.0 11 ------- null}
+ -t 0.606 -s 1 -d 2 -p cbr -e 1000 -c 3 -i 108 -a 3 -x {1.0 2.0 106 ------- null}
+ -t 0.606 -s 1 -d 2 -p cbr -e 1000 -c 3 -i 109 -a 3 -x {1.0 2.0 107 ------- null}
d -t 0.606 -s 1 -d 2 -p cbr -e 1000 -c 3 -i 109 -a 3 -x {1.0 2.0 107 ------- null}
r -t 0.60632 -s 1 -d 2 -p tcp -e 40 -c 1 -i 2 -a 1 -x {0.0 3.0 0 ------- null}
+ -t 0.60632 -s 2 -d 3 -p tcp -e 40 -c 1 -i 2 -a 1 -x {0.0 3.0 0 ------- null}
- -t 0.60632 -s 2 -d 3 -p tcp -e 40 -c 1 -i 2 -a 1 -x {0.0 3.0 0 ------- null}
h -t 0.60632 -s 2 -d 3 -p tcp -e 40 -c 1 -i 2 -a 1 -x {0.0 3.0 -1 ------- null}
r -t 0.60664 -s 1 -d 2 -p tcp -e 40 -c 2 -i 3 -a 2 -x {4.0 5.0 0 ------- null}
+ -t 0.60664 -s 2 -d 5 -p tcp -e 40 -c 2 -i 3 -a 2 -x {4.0 5.0 0 ------- null}
- -t 0.60664 -s 2 -d 5 -p tcp -e 40 -c 2 -i 3 -a 2 -x {4.0 5.0 0 ------- null}
h -t 0.60664 -s 2 -d 5 -p tcp -e 40 -c 2 -i 3 -a 2 -x {4.0 5.0 -1 ------- null}
+ -t 0.608 -s 1 -d 2 -p cbr -e 1000 -c 3 -i 110 -a 3 -x {1.0 2.0 108 ------- null}
d -t 0.608 -s 1 -d 2 -p cbr -e 1000 -c 3 -i 110 -a 3 -x {1.0 2.0 108 ------- null}
+ -t 0.608 -s 1 -d 2 -p cbr -e 1000 -c 3 -i 111 -a 3 -x {1.0 2.0 109 ------- null}
d -t 0.608 -s 1 -d 2 -p cbr -e 1000 -c 3 -i 111 -a 3 -x {1.0 2.0 109 ------- null}
+ -t 0.61 -s 1 -d 2 -p cbr -e 1000 -c 3 -i 112 -a 3 -x {1.0 2.0 110 ------- null}
d -t 0.61 -s 1 -d 2 -p cbr -e 1000 -c 3 -i 112 -a 3 -x {1.0 2.0 110 ------- null}
+ -t 0.61 -s 1 -d 2 -p cbr -e 1000 -c 3 -i 113 -a 3 -x {1.0 2.0 111 ------- null}
d -t 0.61 -s 1 -d 2 -p cbr -e 1000 -c 3 -i 113 -a 3 -x {1.0 2.0 111 ------- null}
+ -t 0.612 -s 1 -d 2 -p cbr -e 1000 -c 3 -i 114 -a 3 -x {1.0 2.0 112 ------- null}
d -t 0.612 -s 1 -d 2 -p cbr -e 1000 -c 3 -i 114 -a 3 -x {1.0 2.0 112 ------- null}
+ -t 0.612 -s 1 -d 2 -p cbr -e 1000 -c 3 -i 115 -a 3 -x {1.0 2.0 113 ------- null}
d -t 0.612 -s 1 -d 2 -p cbr -e 1000 -c 3 -i 115 -a 3 -x {1.0 2.0 113 ------- null}
- -t 0.61264 -s 1 -d 2 -p cbr -e 1000 -c 3 -i 16 -a 3 -x {1.0 2.0 14 ------- null}
h -t 0.61264 -s 1 -d 2 -p cbr -e 1000 -c 3 -i 16 -a 3 -x {1.0 2.0 -1 ------- null}
+ -t 0.614 -s 1 -d 2 -p cbr -e 1000 -c 3 -i 116 -a 3 -x {1.0 2.0 114 ------- null}
+ -t 0.614 -s 1 -d 2 -p cbr -e 1000 -c 3 -i 117 -a 3 -x {1.0 2.0 115 ------- null}
d -t 0.614 -s 1 -d 2 -p cbr -e 1000 -c 3 -i 117 -a 3 -x {1.0 2.0 115 ------- null}
r -t 0.61464 -s 1 -d 2 -p cbr -e 1000 -c 3 -i 14 -a 3 -x {1.0 2.0 12 ------- null}
+ -t 0.616 -s 1 -d 2 -p cbr -e 1000 -c 3 -i 118 -a 3 -x {1.0 2.0 116 ------- null}
d -t 0.616 -s 1 -d 2 -p cbr -e 1000 -c 3 -i 118 -a 3 -x {1.0 2.0 116 ------- null}
+ -t 0.616 -s 1 -d 2 -p cbr -e 1000 -c 3 -i 119 -a 3 -x {1.0 2.0 117 ------- null}
d -t 0.616 -s 1 -d 2 -p cbr -e 1000 -c 3 -i 119 -a 3 -x {1.0 2.0 117 ------- null}
r -t 0.616352 -s 2 -d 3 -p tcp -e 40 -c 1 -i 2 -a 1 -x {0.0 3.0 0 ------- null}
+ -t 0.616352 -s 3 -d 2 -p ack -e 40 -c 1 -i 120 -a 1 -x {3.0 0.0 0 ------- null}
- -t 0.616352 -s 3 -d 2 -p ack -e 40 -c 1 -i 120 -a 1 -x {3.0 0.0 0 ------- null}
h -t 0.616352 -s 3 -d 2 -p ack -e 40 -c 1 -i 120 -a 1 -x {3.0 0.0 -1 ------- null}
r -t 0.616672 -s 2 -d 5 -p tcp -e 40 -c 2 -i 3 -a 2 -x {4.0 5.0 0 ------- null}
+ -t 0.616672 -s 5 -d 2 -p ack -e 40 -c 2 -i 121 -a 2 -x {5.0 4.0 0 ------- null}
- -t 0.616672 -s 5 -d 2 -p ack -e 40 -c 2 -i 121 -a 2 -x {5.0 4.0 0 ------- null}
h -t 0.616672 -s 5 -d 2 -p ack -e 40 -c 2 -i 121 -a 2 -x {5.0 4.0 -1 ------- null}
+ -t 0.618 -s 1 -d 2 -p cbr -e 1000 -c 3 -i 122 -a 3 -x {1.0 2.0 118 ------- null}
d -t 0.618 -s 1 -d 2 -p cbr -e 1000 -c 3 -i 122 -a 3 -x {1.0 2.0 118 ------- null}
+ -t 0.618 -s 1 -d 2 -p cbr -e 1000 -c 3 -i 123 -a 3 -x {1.0 2.0 119 ------- null}
d -t 0.618 -s 1 -d 2 -p cbr -e 1000 -c 3 -i 123 -a 3 -x {1.0 2.0 119 ------- null}
+ -t 0.62 -s 1 -d 2 -p cbr -e 1000 -c 3 -i 124 -a 3 -x {1.0 2.0 120 ------- null}
d -t 0.62 -s 1 -d 2 -p cbr -e 1000 -c 3 -i 124 -a 3 -x {1.0 2.0 120 ------- null}
+ -t 0.62 -s 1 -d 2 -p cbr -e 1000 -c 3 -i 125 -a 3 -x {1.0 2.0 121 ------- null}
d -t 0.62 -s 1 -d 2 -p cbr -e 1000 -c 3 -i 125 -a 3 -x {1.0 2.0 121 ------- null}
- -t 0.62064 -s 1 -d 2 -p cbr -e 1000 -c 3 -i 17 -a 3 -x {1.0 2.0 15 ------- null}
h -t 0.62064 -s 1 -d 2 -p cbr -e 1000 -c 3 -i 17 -a 3 -x {1.0 2.0 -1 ------- null}
+ -t 0.622 -s 1 -d 2 -p cbr -e 1000 -c 3 -i 126 -a 3 -x {1.0 2.0 122 ------- null}
+ -t 0.622 -s 1 -d 2 -p cbr -e 1000 -c 3 -i 127 -a 3 -x {1.0 2.0 123 ------- null}
d -t 0.622 -s 1 -d 2 -p cbr -e 1000 -c 3 -i 127 -a 3 -x {1.0 2.0 123 ------- null}
r -t 0.62264 -s 1 -d 2 -p cbr -e 1000 -c 3 -i 15 -a 3 -x {1.0 2.0 13 ------- null}
+ -t 0.624 -s 1 -d 2 -p cbr -e 1000 -c 3 -i 128 -a 3 -x {1.0 2.0 124 ------- null}
d -t 0.624 -s 1 -d 2 -p cbr -e 1000 -c 3 -i 128 -a 3 -x {1.0 2.0 124 ------- null}
+ -t 0.624 -s 1 -d 2 -p cbr -e 1000 -c 3 -i 129 -a 3 -x {1.0 2.0 125 ------- null}
d -t 0.624 -s 1 -d 2 -p cbr -e 1000 -c 3 -i 129 -a 3 -x {1.0 2.0 125 ------- null}
+ -t 0.626 -s 1 -d 2 -p cbr -e 1000 -c 3 -i 130 -a 3 -x {1.0 2.0 126 ------- null}
d -t 0.626 -s 1 -d 2 -p cbr -e 1000 -c 3 -i 130 -a 3 -x {1.0 2.0 126 ------- null}
+ -t 0.626 -s 1 -d 2 -p cbr -e 1000 -c 3 -i 131 -a 3 -x {1.0 2.0 127 ------- null}
d -t 0.626 -s 1 -d 2 -p cbr -e 1000 -c 3 -i 131 -a 3 -x {1.0 2.0 127 ------- null}
r -t 0.626384 -s 3 -d 2 -p ack -e 40 -c 1 -i 120 -a 1 -x {3.0 0.0 0 ------- null}
+ -t 0.626384 -s 2 -d 1 -p ack -e 40 -c 1 -i 120 -a 1 -x {3.0 0.0 0 ------- null}
- -t 0.626384 -s 2 -d 1 -p ack -e 40 -c 1 -i 120 -a 1 -x {3.0 0.0 0 ------- null}
h -t 0.626384 -s 2 -d 1 -p ack -e 40 -c 1 -i 120 -a 1 -x {3.0 0.0 -1 ------- null}
r -t 0.626704 -s 5 -d 2 -p ack -e 40 -c 2 -i 121 -a 2 -x {5.0 4.0 0 ------- null}
+ -t 0.626704 -s 2 -d 1 -p ack -e 40 -c 2 -i 121 -a 2 -x {5.0 4.0 0 ------- null}
- -t 0.626704 -s 2 -d 1 -p ack -e 40 -c 2 -i 121 -a 2 -x {5.0 4.0 0 ------- null}
h -t 0.626704 -s 2 -d 1 -p ack -e 40 -c 2 -i 121 -a 2 -x {5.0 4.0 -1 ------- null}
+ -t 0.628 -s 1 -d 2 -p cbr -e 1000 -c 3 -i 132 -a 3 -x {1.0 2.0 128 ------- null}
d -t 0.628 -s 1 -d 2 -p cbr -e 1000 -c 3 -i 132 -a 3 -x {1.0 2.0 128 ------- null}
+ -t 0.628 -s 1 -d 2 -p cbr -e 1000 -c 3 -i 133 -a 3 -x {1.0 2.0 129 ------- null}
d -t 0.628 -s 1 -d 2 -p cbr -e 1000 -c 3 -i 133 -a 3 -x {1.0 2.0 129 ------- null}
- -t 0.62864 -s 1 -d 2 -p cbr -e 1000 -c 3 -i 18 -a 3 -x {1.0 2.0 16 ------- null}
h -t 0.62864 -s 1 -d 2 -p cbr -e 1000 -c 3 -i 18 -a 3 -x {1.0 2.0 -1 ------- null}
+ -t 0.63 -s 1 -d 2 -p cbr -e 1000 -c 3 -i 134 -a 3 -x {1.0 2.0 130 ------- null}
+ -t 0.63 -s 1 -d 2 -p cbr -e 1000 -c 3 -i 135 -a 3 -x {1.0 2.0 131 ------- null}
d -t 0.63 -s 1 -d 2 -p cbr -e 1000 -c 3 -i 135 -a 3 -x {1.0 2.0 131 ------- null}
r -t 0.63064 -s 1 -d 2 -p cbr -e 1000 -c 3 -i 16 -a 3 -x {1.0 2.0 14 ------- null}
+ -t 0.632 -s 1 -d 2 -p cbr -e 1000 -c 3 -i 136 -a 3 -x {1.0 2.0 132 ------- null}
d -t 0.632 -s 1 -d 2 -p cbr -e 1000 -c 3 -i 136 -a 3 -x {1.0 2.0 132 ------- null}
+ -t 0.632 -s 1 -d 2 -p cbr -e 1000 -c 3 -i 137 -a 3 -x {1.0 2.0 133 ------- null}
d -t 0.632 -s 1 -d 2 -p cbr -e 1000 -c 3 -i 137 -a 3 -x {1.0 2.0 133 ------- null}
+ -t 0.634 -s 1 -d 2 -p cbr -e 1000 -c 3 -i 138 -a 3 -x {1.0 2.0 134 ------- null}
d -t 0.634 -s 1 -d 2 -p cbr -e 1000 -c 3 -i 138 -a 3 -x {1.0 2.0 134 ------- null}
+ -t 0.634 -s 1 -d 2 -p cbr -e 1000 -c 3 -i 139 -a 3 -x {1.0 2.0 135 ------- null}
d -t 0.634 -s 1 -d 2 -p cbr -e 1000 -c 3 -i 139 -a 3 -x {1.0 2.0 135 ------- null}
+ -t 0.636 -s 1 -d 2 -p cbr -e 1000 -c 3 -i 140 -a 3 -x {1.0 2.0 136 ------- null}
d -t 0.636 -s 1 -d 2 -p cbr -e 1000 -c 3 -i 140 -a 3 -x {1.0 2.0 136 ------- null}
+ -t 0.636 -s 1 -d 2 -p cbr -e 1000 -c 3 -i 141 -a 3 -x {1.0 2.0 137 ------- null}
d -t 0.636 -s 1 -d 2 -p cbr -e 1000 -c 3 -i 141 -a 3 -x {1.0 2.0 137 ------- null}
- -t 0.63664 -s 1 -d 2 -p cbr -e 1000 -c 3 -i 19 -a 3 -x {1.0 2.0 17 ------- null}
h -t 0.63664 -s 1 -d 2 -p cbr -e 1000 -c 3 -i 19 -a 3 -x {1.0 2.0 -1 ------- null}
r -t 0.636704 -s 2 -d 1 -p ack -e 40 -c 1 -i 120 -a 1 -x {3.0 0.0 0 ------- null}
+ -t 0.636704 -s 1 -d 0 -p ack -e 40 -c 1 -i 120 -a 1 -x {3.0 0.0 0 ------- null}
- -t 0.636704 -s 1 -d 0 -p ack -e 40 -c 1 -i 120 -a 1 -x {3.0 0.0 0 ------- null}
h -t 0.636704 -s 1 -d 0 -p ack -e 40 -c 1 -i 120 -a 1 -x {3.0 0.0 -1 ------- null}
r -t 0.637024 -s 2 -d 1 -p ack -e 40 -c 2 -i 121 -a 2 -x {5.0 4.0 0 ------- null}
+ -t 0.637024 -s 1 -d 4 -p ack -e 40 -c 2 -i 121 -a 2 -x {5.0 4.0 0 ------- null}
- -t 0.637024 -s 1 -d 4 -p ack -e 40 -c 2 -i 121 -a 2 -x {5.0 4.0 0 ------- null}
h -t 0.637024 -s 1 -d 4 -p ack -e 40 -c 2 -i 121 -a 2 -x {5.0 4.0 -1 ------- null}
+ -t 0.638 -s 1 -d 2 -p cbr -e 1000 -c 3 -i 142 -a 3 -x {1.0 2.0 138 ------- null}
+ -t 0.638 -s 1 -d 2 -p cbr -e 1000 -c 3 -i 143 -a 3 -x {1.0 2.0 139 ------- null}
d -t 0.638 -s 1 -d 2 -p cbr -e 1000 -c 3 -i 143 -a 3 -x {1.0 2.0 139 ------- null}
r -t 0.63864 -s 1 -d 2 -p cbr -e 1000 -c 3 -i 17 -a 3 -x {1.0 2.0 15 ------- null}
+ -t 0.64 -s 1 -d 2 -p cbr -e 1000 -c 3 -i 144 -a 3 -x {1.0 2.0 140 ------- null}
d -t 0.64 -s 1 -d 2 -p cbr -e 1000 -c 3 -i 144 -a 3 -x {1.0 2.0 140 ------- null}
+ -t 0.64 -s 1 -d 2 -p cbr -e 1000 -c 3 -i 145 -a 3 -x {1.0 2.0 141 ------- null}
d -t 0.64 -s 1 -d 2 -p cbr -e 1000 -c 3 -i 145 -a 3 -x {1.0 2.0 141 ------- null}
+ -t 0.642 -s 1 -d 2 -p cbr -e 1000 -c 3 -i 146 -a 3 -x {1.0 2.0 142 ------- null}
d -t 0.642 -s 1 -d 2 -p cbr -e 1000 -c 3 -i 146 -a 3 -x {1.0 2.0 142 ------- null}
+ -t 0.642 -s 1 -d 2 -p cbr -e 1000 -c 3 -i 147 -a 3 -x {1.0 2.0 143 ------- null}
d -t 0.642 -s 1 -d 2 -p cbr -e 1000 -c 3 -i 147 -a 3 -x {1.0 2.0 143 ------- null}
+ -t 0.644 -s 1 -d 2 -p cbr -e 1000 -c 3 -i 148 -a 3 -x {1.0 2.0 144 ------- null}
d -t 0.644 -s 1 -d 2 -p cbr -e 1000 -c 3 -i 148 -a 3 -x {1.0 2.0 144 ------- null}
+ -t 0.644 -s 1 -d 2 -p cbr -e 1000 -c 3 -i 149 -a 3 -x {1.0 2.0 145 ------- null}
d -t 0.644 -s 1 -d 2 -p cbr -e 1000 -c 3 -i 149 -a 3 -x {1.0 2.0 145 ------- null}
- -t 0.64464 -s 1 -d 2 -p cbr -e 1000 -c 3 -i 20 -a 3 -x {1.0 2.0 18 ------- null}
h -t 0.64464 -s 1 -d 2 -p cbr -e 1000 -c 3 -i 20 -a 3 -x {1.0 2.0 -1 ------- null}
+ -t 0.646 -s 1 -d 2 -p cbr -e 1000 -c 3 -i 150 -a 3 -x {1.0 2.0 146 ------- null}
+ -t 0.646 -s 1 -d 2 -p cbr -e 1000 -c 3 -i 151 -a 3 -x {1.0 2.0 147 ------- null}
d -t 0.646 -s 1 -d 2 -p cbr -e 1000 -c 3 -i 151 -a 3 -x {1.0 2.0 147 ------- null}
r -t 0.64664 -s 1 -d 2 -p cbr -e 1000 -c 3 -i 18 -a 3 -x {1.0 2.0 16 ------- null}
r -t 0.646736 -s 1 -d 0 -p ack -e 40 -c 1 -i 120 -a 1 -x {3.0 0.0 0 ------- null}
+ -t 0.646736 -s 0 -d 1 -p tcp -e 1040 -c 1 -i 152 -a 1 -x {0.0 3.0 1 ------- null}
- -t 0.646736 -s 0 -d 1 -p tcp -e 1040 -c 1 -i 152 -a 1 -x {0.0 3.0 1 ------- null}
h -t 0.646736 -s 0 -d 1 -p tcp -e 1040 -c 1 -i 152 -a 1 -x {0.0 3.0 -1 ------- null}
+ -t 0.646736 -s 0 -d 1 -p tcp -e 1040 -c 1 -i 153 -a 1 -x {0.0 3.0 2 ------- null}
r -t 0.647056 -s 1 -d 4 -p ack -e 40 -c 2 -i 121 -a 2 -x {5.0 4.0 0 ------- null}
+ -t 0.647056 -s 4 -d 1 -p tcp -e 1040 -c 2 -i 154 -a 2 -x {4.0 5.0 1 ------- null}
- -t 0.647056 -s 4 -d 1 -p tcp -e 1040 -c 2 -i 154 -a 2 -x {4.0 5.0 1 ------- null}
h -t 0.647056 -s 4 -d 1 -p tcp -e 1040 -c 2 -i 154 -a 2 -x {4.0 5.0 -1 ------- null}
+ -t 0.647056 -s 4 -d 1 -p tcp -e 1040 -c 2 -i 155 -a 2 -x {4.0 5.0 2 ------- null}
- -t 0.647568 -s 0 -d 1 -p tcp -e 1040 -c 1 -i 153 -a 1 -x {0.0 3.0 2 ------- null}
h -t 0.647568 -s 0 -d 1 -p tcp -e 1040 -c 1 -i 153 -a 1 -x {0.0 3.0 -1 ------- null}
- -t 0.647888 -s 4 -d 1 -p tcp -e 1040 -c 2 -i 155 -a 2 -x {4.0 5.0 2 ------- null}
h -t 0.647888 -s 4 -d 1 -p tcp -e 1040 -c 2 -i 155 -a 2 -x {4.0 5.0 -1 ------- null}
+ -t 0.648 -s 1 -d 2 -p cbr -e 1000 -c 3 -i 156 -a 3 -x {1.0 2.0 148 ------- null}
d -t 0.648 -s 1 -d 2 -p cbr -e 1000 -c 3 -i 156 -a 3 -x {1.0 2.0 148 ------- null}
+ -t 0.648 -s 1 -d 2 -p cbr -e 1000 -c 3 -i 157 -a 3 -x {1.0 2.0 149 ------- null}
d -t 0.648 -s 1 -d 2 -p cbr -e 1000 -c 3 -i 157 -a 3 -x {1.0 2.0 149 ------- null}
+ -t 0.65 -s 1 -d 2 -p cbr -e 1000 -c 3 -i 158 -a 3 -x {1.0 2.0 150 ------- null}
d -t 0.65 -s 1 -d 2 -p cbr -e 1000 -c 3 -i 158 -a 3 -x {1.0 2.0 150 ------- null}
+ -t 0.65 -s 1 -d 2 -p cbr -e 1000 -c 3 -i 159 -a 3 -x {1.0 2.0 151 ------- null}
d -t 0.65 -s 1 -d 2 -p cbr -e 1000 -c 3 -i 159 -a 3 -x {1.0 2.0 151 ------- null}
+ -t 0.652 -s 1 -d 2 -p cbr -e 1000 -c 3 -i 160 -a 3 -x {1.0 2.0 152 ------- null}
d -t 0.652 -s 1 -d 2 -p cbr -e 1000 -c 3 -i 160 -a 3 -x {1.0 2.0 152 ------- null}
+ -t 0.652 -s 1 -d 2 -p cbr -e 1000 -c 3 -i 161 -a 3 -x {1.0 2.0 153 ------- null}
d -t 0.652 -s 1 -d 2 -p cbr -e 1000 -c 3 -i 161 -a 3 -x {1.0 2.0 153 ------- null}
- -t 0.65264 -s 1 -d 2 -p cbr -e 1000 -c 3 -i 21 -a 3 -x {1.0 2.0 19 ------- null}
h -t 0.65264 -s 1 -d 2 -p cbr -e 1000 -c 3 -i 21 -a 3 -x {1.0 2.0 -1 ------- null}
+ -t 0.654 -s 1 -d 2 -p cbr -e 1000 -c 3 -i 162 -a 3 -x {1.0 2.0 154 ------- null}
+ -t 0.654 -s 1 -d 2 -p cbr -e 1000 -c 3 -i 163 -a 3 -x {1.0 2.0 155 ------- null}