V -t * -v 1.0a5 -a 0
A -t * -n 1 -p 0 -o 0x7fffffff -c 30 -a 1
A -t * -h 1 -m 1073741823 -s 0
n -t * -a 4 -s 4 -S UP -v circle -c black -i black
n -t * -a 0 -s 0 -S UP -v circle -c black -i black
n -t * -a 5 -s 5 -S UP -v circle -c black -i black
n -t * -a 1 -s 1 -S UP -v circle -c black -i black
n -t * -a 2 -s 2 -S UP -v circle -c black -i black
n -t * -a 3 -s 3 -S UP -v circle -c black -i black
l -t * -s 0 -d 1 -S UP -r 1000000 -D 0.01 -c black -o right-down
l -t * -s 4 -d 1 -S UP -r 1000000 -D 0.01 -c black -o right-up
l -t * -s 1 -d 2 -S UP -r 1000000 -D 0.01 -c black -o right
l -t * -s 2 -d 3 -S UP -r 1000000 -D 0.01 -c black -o right-up
l -t * -s 2 -d 5 -S UP -r 1000000 -D 0.01 -c black -o right-down
+ -t 0.5 -s 0 -d 1 -p tcp -e 40 -c 1 -i 0 -a 1 -x {0.0 3.0 0 ------- null}
- -t 0.5 -s 0 -d 1 -p tcp -e 40 -c 1 -i 0 -a 1 -x {0.0 3.0 0 ------- null}
h -t 0.5 -s 0 -d 1 -p tcp -e 40 -c 1 -i 0 -a 1 -x {0.0 3.0 -1 ------- null}
+ -t 0.5 -s 4 -d 1 -p tcp -e 40 -c 1 -i 1 -a 1 -x {4.0 5.0 0 ------- null}
- -t 0.5 -s 4 -d 1 -p tcp -e 40 -c 1 -i 1 -a 1 -x {4.0 5.0 0 ------- null}
h -t 0.5 -s 4 -d 1 -p tcp -e 40 -c 1 -i 1 -a 1 -x {4.0 5.0 -1 ------- null}
r -t 0.51032 -s 0 -d 1 -p tcp -e 40 -c 1 -i 0 -a 1 -x {0.0 3.0 0 ------- null}
+ -t 0.51032 -s 1 -d 2 -p tcp -e 40 -c 1 -i 0 -a 1 -x {0.0 3.0 0 ------- null}
- -t 0.51032 -s 1 -d 2 -p tcp -e 40 -c 1 -i 0 -a 1 -x {0.0 3.0 0 ------- null}
h -t 0.51032 -s 1 -d 2 -p tcp -e 40 -c 1 -i 0 -a 1 -x {0.0 3.0 -1 ------- null}
r -t 0.51032 -s 4 -d 1 -p tcp -e 40 -c 1 -i 1 -a 1 -x {4.0 5.0 0 ------- null}
+ -t 0.51032 -s 1 -d 2 -p tcp -e 40 -c 1 -i 1 -a 1 -x {4.0 5.0 0 ------- null}
- -t 0.51064 -s 1 -d 2 -p tcp -e 40 -c 1 -i 1 -a 1 -x {4.0 5.0 0 ------- null}
h -t 0.51064 -s 1 -d 2 -p tcp -e 40 -c 1 -i 1 -a 1 -x {4.0 5.0 -1 ------- null}
r -t 0.52064 -s 1 -d 2 -p tcp -e 40 -c 1 -i 0 -a 1 -x {0.0 3.0 0 ------- null}
+ -t 0.52064 -s 2 -d 3 -p tcp -e 40 -c 1 -i 0 -a 1 -x {0.0 3.0 0 ------- null}
- -t 0.52064 -s 2 -d 3 -p tcp -e 40 -c 1 -i 0 -a 1 -x {0.0 3.0 0 ------- null}
h -t 0.52064 -s 2 -d 3 -p tcp -e 40 -c 1 -i 0 -a 1 -x {0.0 3.0 -1 ------- null}
r -t 0.52096 -s 1 -d 2 -p tcp -e 40 -c 1 -i 1 -a 1 -x {4.0 5.0 0 ------- null}
+ -t 0.52096 -s 2 -d 5 -p tcp -e 40 -c 1 -i 1 -a 1 -x {4.0 5.0 0 ------- null}
- -t 0.52096 -s 2 -d 5 -p tcp -e 40 -c 1 -i 1 -a 1 -x {4.0 5.0 0 ------- null}
h -t 0.52096 -s 2 -d 5 -p tcp -e 40 -c 1 -i 1 -a 1 -x {4.0 5.0 -1 ------- null}
r -t 0.53096 -s 2 -d 3 -p tcp -e 40 -c 1 -i 0 -a 1 -x {0.0 3.0 0 ------- null}
+ -t 0.53096 -s 3 -d 2 -p ack -e 40 -c 1 -i 2 -a 1 -x {3.0 0.0 0 ------- null}
- -t 0.53096 -s 3 -d 2 -p ack -e 40 -c 1 -i 2 -a 1 -x {3.0 0.0 0 ------- null}
h -t 0.53096 -s 3 -d 2 -p ack -e 40 -c 1 -i 2 -a 1 -x {3.0 0.0 -1 ------- null}
r -t 0.53128 -s 2 -d 5 -p tcp -e 40 -c 1 -i 1 -a 1 -x {4.0 5.0 0 ------- null}
+ -t 0.53128 -s 5 -d 2 -p ack -e 40 -c 1 -i 3 -a 1 -x {5.0 4.0 0 ------- null}
- -t 0.53128 -s 5 -d 2 -p ack -e 40 -c 1 -i 3 -a 1 -x {5.0 4.0 0 ------- null}
h -t 0.53128 -s 5 -d 2 -p ack -e 40 -c 1 -i 3 -a 1 -x {5.0 4.0 -1 ------- null}
r -t 0.54128 -s 3 -d 2 -p ack -e 40 -c 1 -i 2 -a 1 -x {3.0 0.0 0 ------- null}
+ -t 0.54128 -s 2 -d 1 -p ack -e 40 -c 1 -i 2 -a 1 -x {3.0 0.0 0 ------- null}
- -t 0.54128 -s 2 -d 1 -p ack -e 40 -c 1 -i 2 -a 1 -x {3.0 0.0 0 ------- null}
h -t 0.54128 -s 2 -d 1 -p ack -e 40 -c 1 -i 2 -a 1 -x {3.0 0.0 -1 ------- null}
r -t 0.5416 -s 5 -d 2 -p ack -e 40 -c 1 -i 3 -a 1 -x {5.0 4.0 0 ------- null}
+ -t 0.5416 -s 2 -d 1 -p ack -e 40 -c 1 -i 3 -a 1 -x {5.0 4.0 0 ------- null}
- -t 0.5416 -s 2 -d 1 -p ack -e 40 -c 1 -i 3 -a 1 -x {5.0 4.0 0 ------- null}
h -t 0.5416 -s 2 -d 1 -p ack -e 40 -c 1 -i 3 -a 1 -x {5.0 4.0 -1 ------- null}
r -t 0.5516 -s 2 -d 1 -p ack -e 40 -c 1 -i 2 -a 1 -x {3.0 0.0 0 ------- null}
+ -t 0.5516 -s 1 -d 0 -p ack -e 40 -c 1 -i 2 -a 1 -x {3.0 0.0 0 ------- null}
- -t 0.5516 -s 1 -d 0 -p ack -e 40 -c 1 -i 2 -a 1 -x {3.0 0.0 0 ------- null}
h -t 0.5516 -s 1 -d 0 -p ack -e 40 -c 1 -i 2 -a 1 -x {3.0 0.0 -1 ------- null}
r -t 0.55192 -s 2 -d 1 -p ack -e 40 -c 1 -i 3 -a 1 -x {5.0 4.0 0 ------- null}
+ -t 0.55192 -s 1 -d 4 -p ack -e 40 -c 1 -i 3 -a 1 -x {5.0 4.0 0 ------- null}
- -t 0.55192 -s 1 -d 4 -p ack -e 40 -c 1 -i 3 -a 1 -x {5.0 4.0 0 ------- null}
h -t 0.55192 -s 1 -d 4 -p ack -e 40 -c 1 -i 3 -a 1 -x {5.0 4.0 -1 ------- null}
r -t 0.56192 -s 1 -d 0 -p ack -e 40 -c 1 -i 2 -a 1 -x {3.0 0.0 0 ------- null}
+ -t 0.56192 -s 0 -d 1 -p tcp -e 1040 -c 1 -i 4 -a 1 -x {0.0 3.0 1 ------- null}
- -t 0.56192 -s 0 -d 1 -p tcp -e 1040 -c 1 -i 4 -a 1 -x {0.0 3.0 1 ------- null}
h -t 0.56192 -s 0 -d 1 -p tcp -e 1040 -c 1 -i 4 -a 1 -x {0.0 3.0 -1 ------- null}
+ -t 0.56192 -s 0 -d 1 -p tcp -e 1040 -c 1 -i 5 -a 1 -x {0.0 3.0 2 ------- null}
r -t 0.56224 -s 1 -d 4 -p ack -e 40 -c 1 -i 3 -a 1 -x {5.0 4.0 0 ------- null}
+ -t 0.56224 -s 4 -d 1 -p tcp -e 1040 -c 1 -i 6 -a 1 -x {4.0 5.0 1 ------- null}
- -t 0.56224 -s 4 -d 1 -p tcp -e 1040 -c 1 -i 6 -a 1 -x {4.0 5.0 1 ------- null}
h -t 0.56224 -s 4 -d 1 -p tcp -e 1040 -c 1 -i 6 -a 1 -x {4.0 5.0 -1 ------- null}
+ -t 0.56224 -s 4 -d 1 -p tcp -e 1040 -c 1 -i 7 -a 1 -x {4.0 5.0 2 ------- null}
- -t 0.57024 -s 0 -d 1 -p tcp -e 1040 -c 1 -i 5 -a 1 -x {0.0 3.0 2 ------- null}
h -t 0.57024 -s 0 -d 1 -p tcp -e 1040 -c 1 -i 5 -a 1 -x {0.0 3.0 -1 ------- null}
- -t 0.57056 -s 4 -d 1 -p tcp -e 1040 -c 1 -i 7 -a 1 -x {4.0 5.0 2 ------- null}
h -t 0.57056 -s 4 -d 1 -p tcp -e 1040 -c 1 -i 7 -a 1 -x {4.0 5.0 -1 ------- null}
r -t 0.58024 -s 0 -d 1 -p tcp -e 1040 -c 1 -i 4 -a 1 -x {0.0 3.0 1 ------- null}
+ -t 0.58024 -s 1 -d 2 -p tcp -e 1040 -c 1 -i 4 -a 1 -x {0.0 3.0 1 ------- null}
- -t 0.58024 -s 1 -d 2 -p tcp -e 1040 -c 1 -i 4 -a 1 -x {0.0 3.0 1 ------- null}
h -t 0.58024 -s 1 -d 2 -p tcp -e 1040 -c 1 -i 4 -a 1 -x {0.0 3.0 -1 ------- null}
r -t 0.58056 -s 4 -d 1 -p tcp -e 1040 -c 1 -i 6 -a 1 -x {4.0 5.0 1 ------- null}
+ -t 0.58056 -s 1 -d 2 -p tcp -e 1040 -c 1 -i 6 -a 1 -x {4.0 5.0 1 ------- null}
r -t 0.58856 -s 0 -d 1 -p tcp -e 1040 -c 1 -i 5 -a 1 -x {0.0 3.0 2 ------- null}
+ -t 0.58856 -s 1 -d 2 -p tcp -e 1040 -c 1 -i 5 -a 1 -x {0.0 3.0 2 ------- null}
- -t 0.58856 -s 1 -d 2 -p tcp -e 1040 -c 1 -i 6 -a 1 -x {4.0 5.0 1 ------- null}
h -t 0.58856 -s 1 -d 2 -p tcp -e 1040 -c 1 -i 6 -a 1 -x {4.0 5.0 -1 ------- null}
r -t 0.58888 -s 4 -d 1 -p tcp -e 1040 -c 1 -i 7 -a 1 -x {4.0 5.0 2 ------- null}
+ -t 0.58888 -s 1 -d 2 -p tcp -e 1040 -c 1 -i 7 -a 1 -x {4.0 5.0 2 ------- null}
- -t 0.59688 -s 1 -d 2 -p tcp -e 1040 -c 1 -i 5 -a 1 -x {0.0 3.0 2 ------- null}
h -t 0.59688 -s 1 -d 2 -p tcp -e 1040 -c 1 -i 5 -a 1 -x {0.0 3.0 -1 ------- null}
r -t 0.59856 -s 1 -d 2 -p tcp -e 1040 -c 1 -i 4 -a 1 -x {0.0 3.0 1 ------- null}
+ -t 0.59856 -s 2 -d 3 -p tcp -e 1040 -c 1 -i 4 -a 1 -x {0.0 3.0 1 ------- null}
- -t 0.59856 -s 2 -d 3 -p tcp -e 1040 -c 1 -i 4 -a 1 -x {0.0 3.0 1 ------- null}
h -t 0.59856 -s 2 -d 3 -p tcp -e 1040 -c 1 -i 4 -a 1 -x {0.0 3.0 -1 ------- null}
- -t 0.6052 -s 1 -d 2 -p tcp -e 1040 -c 1 -i 7 -a 1 -x {4.0 5.0 2 ------- null}
h -t 0.6052 -s 1 -d 2 -p tcp -e 1040 -c 1 -i 7 -a 1 -x {4.0 5.0 -1 ------- null}
r -t 0.60688 -s 1 -d 2 -p tcp -e 1040 -c 1 -i 6 -a 1 -x {4.0 5.0 1 ------- null}
+ -t 0.60688 -s 2 -d 5 -p tcp -e 1040 -c 1 -i 6 -a 1 -x {4.0 5.0 1 ------- null}
- -t 0.60688 -s 2 -d 5 -p tcp -e 1040 -c 1 -i 6 -a 1 -x {4.0 5.0 1 ------- null}
h -t 0.60688 -s 2 -d 5 -p tcp -e 1040 -c 1 -i 6 -a 1 -x {4.0 5.0 -1 ------- null}
r -t 0.6152 -s 1 -d 2 -p tcp -e 1040 -c 1 -i 5 -a 1 -x {0.0 3.0 2 ------- null}
+ -t 0.6152 -s 2 -d 3 -p tcp -e 1040 -c 1 -i 5 -a 1 -x {0.0 3.0 2 ------- null}
- -t 0.6152 -s 2 -d 3 -p tcp -e 1040 -c 1 -i 5 -a 1 -x {0.0 3.0 2 ------- null}
h -t 0.6152 -s 2 -d 3 -p tcp -e 1040 -c 1 -i 5 -a 1 -x {0.0 3.0 -1 ------- null}
r -t 0.61688 -s 2 -d 3 -p tcp -e 1040 -c 1 -i 4 -a 1 -x {0.0 3.0 1 ------- null}
+ -t 0.61688 -s 3 -d 2 -p ack -e 40 -c 1 -i 8 -a 1 -x {3.0 0.0 1 ------- null}
- -t 0.61688 -s 3 -d 2 -p ack -e 40 -c 1 -i 8 -a 1 -x {3.0 0.0 1 ------- null}
h -t 0.61688 -s 3 -d 2 -p ack -e 40 -c 1 -i 8 -a 1 -x {3.0 0.0 -1 ------- null}
r -t 0.62352 -s 1 -d 2 -p tcp -e 1040 -c 1 -i 7 -a 1 -x {4.0 5.0 2 ------- null}
+ -t 0.62352 -s 2 -d 5 -p tcp -e 1040 -c 1 -i 7 -a 1 -x {4.0 5.0 2 ------- null}
- -t 0.62352 -s 2 -d 5 -p tcp -e 1040 -c 1 -i 7 -a 1 -x {4.0 5.0 2 ------- null}
h -t 0.62352 -s 2 -d 5 -p tcp -e 1040 -c 1 -i 7 -a 1 -x {4.0 5.0 -1 ------- null}
r -t 0.6252 -s 2 -d 5 -p tcp -e 1040 -c 1 -i 6 -a 1 -x {4.0 5.0 1 ------- null}
+ -t 0.6252 -s 5 -d 2 -p ack -e 40 -c 1 -i 9 -a 1 -x {5.0 4.0 1 ------- null}
- -t 0.6252 -s 5 -d 2 -p ack -e 40 -c 1 -i 9 -a 1 -x {5.0 4.0 1 ------- null}
h -t 0.6252 -s 5 -d 2 -p ack -e 40 -c 1 -i 9 -a 1 -x {5.0 4.0 -1 ------- null}
r -t 0.6272 -s 3 -d 2 -p ack -e 40 -c 1 -i 8 -a 1 -x {3.0 0.0 1 ------- null}
+ -t 0.6272 -s 2 -d 1 -p ack -e 40 -c 1 -i 8 -a 1 -x {3.0 0.0 1 ------- null}
- -t 0.6272 -s 2 -d 1 -p ack -e 40 -c 1 -i 8 -a 1 -x {3.0 0.0 1 ------- null}
h -t 0.6272 -s 2 -d 1 -p ack -e 40 -c 1 -i 8 -a 1 -x {3.0 0.0 -1 ------- null}
r -t 0.63352 -s 2 -d 3 -p tcp -e 1040 -c 1 -i 5 -a 1 -x {0.0 3.0 2 ------- null}
+ -t 0.63352 -s 3 -d 2 -p ack -e 40 -c 1 -i 10 -a 1 -x {3.0 0.0 2 ------- null}
- -t 0.63352 -s 3 -d 2 -p ack -e 40 -c 1 -i 10 -a 1 -x {3.0 0.0 2 ------- null}
h -t 0.63352 -s 3 -d 2 -p ack -e 40 -c 1 -i 10 -a 1 -x {3.0 0.0 -1 ------- null}
r -t 0.63552 -s 5 -d 2 -p ack -e 40 -c 1 -i 9 -a 1 -x {5.0 4.0 1 ------- null}
+ -t 0.63552 -s 2 -d 1 -p ack -e 40 -c 1 -i 9 -a 1 -x {5.0 4.0 1 ------- null}
- -t 0.63552 -s 2 -d 1 -p ack -e 40 -c 1 -i 9 -a 1 -x {5.0 4.0 1 ------- null}
h -t 0.63552 -s 2 -d 1 -p ack -e 40 -c 1 -i 9 -a 1 -x {5.0 4.0 -1 ------- null}
r -t 0.63752 -s 2 -d 1 -p ack -e 40 -c 1 -i 8 -a 1 -x {3.0 0.0 1 ------- null}
+ -t 0.63752 -s 1 -d 0 -p ack -e 40 -c 1 -i 8 -a 1 -x {3.0 0.0 1 ------- null}
- -t 0.63752 -s 1 -d 0 -p ack -e 40 -c 1 -i 8 -a 1 -x {3.0 0.0 1 ------- null}
h -t 0.63752 -s 1 -d 0 -p ack -e 40 -c 1 -i 8 -a 1 -x {3.0 0.0 -1 ------- null}
r -t 0.64184 -s 2 -d 5 -p tcp -e 1040 -c 1 -i 7 -a 1 -x {4.0 5.0 2 ------- null}
+ -t 0.64184 -s 5 -d 2 -p ack -e 40 -c 1 -i 11 -a 1 -x {5.0 4.0 2 ------- null}
- -t 0.64184 -s 5 -d 2 -p ack -e 40 -c 1 -i 11 -a 1 -x {5.0 4.0 2 ------- null}
h -t 0.64184 -s 5 -d 2 -p ack -e 40 -c 1 -i 11 -a 1 -x {5.0 4.0 -1 ------- null}
r -t 0.64384 -s 3 -d 2 -p ack -e 40 -c 1 -i 10 -a 1 -x {3.0 0.0 2 ------- null}
+ -t 0.64384 -s 2 -d 1 -p ack -e 40 -c 1 -i 10 -a 1 -x {3.0 0.0 2 ------- null}
- -t 0.64384 -s 2 -d 1 -p ack -e 40 -c 1 -i 10 -a 1 -x {3.0 0.0 2 ------- null}
h -t 0.64384 -s 2 -d 1 -p ack -e 40 -c 1 -i 10 -a 1 -x {3.0 0.0 -1 ------- null}
r -t 0.64584 -s 2 -d 1 -p ack -e 40 -c 1 -i 9 -a 1 -x {5.0 4.0 1 ------- null}
+ -t 0.64584 -s 1 -d 4 -p ack -e 40 -c 1 -i 9 -a 1 -x {5.0 4.0 1 ------- null}
- -t 0.64584 -s 1 -d 4 -p ack -e 40 -c 1 -i 9 -a 1 -x {5.0 4.0 1 ------- null}
h -t 0.64584 -s 1 -d 4 -p ack -e 40 -c 1 -i 9 -a 1 -x {5.0 4.0 -1 ------- null}
r -t 0.64784 -s 1 -d 0 -p ack -e 40 -c 1 -i 8 -a 1 -x {3.0 0.0 1 ------- null}
+ -t 0.64784 -s 0 -d 1 -p tcp -e 1040 -c 1 -i 12 -a 1 -x {0.0 3.0 3 ------- null}
- -t 0.64784 -s 0 -d 1 -p tcp -e 1040 -c 1 -i 12 -a 1 -x {0.0 3.0 3 ------- null}
h -t 0.64784 -s 0 -d 1 -p tcp -e 1040 -c 1 -i 12 -a 1 -x {0.0 3.0 -1 ------- null}
+ -t 0.64784 -s 0 -d 1 -p tcp -e 1040 -c 1 -i 13 -a 1 -x {0.0 3.0 4 ------- null}
r -t 0.65216 -s 5 -d 2 -p ack -e 40 -c 1 -i 11 -a 1 -x {5.0 4.0 2 ------- null}
+ -t 0.65216 -s 2 -d 1 -p ack -e 40 -c 1 -i 11 -a 1 -x {5.0 4.0 2 ------- null}
- -t 0.65216 -s 2 -d 1 -p ack -e 40 -c 1 -i 11 -a 1 -x {5.0 4.0 2 ------- null}
h -t 0.65216 -s 2 -d 1 -p ack -e 40 -c 1 -i 11 -a 1 -x {5.0 4.0 -1 ------- null}
r -t 0.65416 -s 2 -d 1 -p ack -e 40 -c 1 -i 10 -a 1 -x {3.0 0.0 2 ------- null}
+ -t 0.65416 -s 1 -d 0 -p ack -e 40 -c 1 -i 10 -a 1 -x {3.0 0.0 2 ------- null}
- -t 0.65416 -s 1 -d 0 -p ack -e 40 -c 1 -i 10 -a 1 -x {3.0 0.0 2 ------- null}
h -t 0.65416 -s 1 -d 0 -p ack -e 40 -c 1 -i 10 -a 1 -x {3.0 0.0 -1 ------- null}
r -t 0.65616 -s 1 -d 4 -p ack -e 40 -c 1 -i 9 -a 1 -x {5.0 4.0 1 ------- null}
+ -t 0.65616 -s 4 -d 1 -p tcp -e 1040 -c 1 -i 14 -a 1 -x {4.0 5.0 3 ------- null}
- -t 0.65616 -s 4 -d 1 -p tcp -e 1040 -c 1 -i 14 -a 1 -x {4.0 5.0 3 ------- null}
h -t 0.65616 -s 4 -d 1 -p tcp -e 1040 -c 1 -i 14 -a 1 -x {4.0 5.0 -1 ------- null}
+ -t 0.65616 -s 4 -d 1 -p tcp -e 1040 -c 1 -i 15 -a 1 -x {4.0 5.0 4 ------- null}
- -t 0.65616 -s 0 -d 1 -p tcp -e 1040 -c 1 -i 13 -a 1 -x {0.0 3.0 4 ------- null}
h -t 0.65616 -s 0 -d 1 -p tcp -e 1040 -c 1 -i 13 -a 1 -x {0.0 3.0 -1 ------- null}
r -t 0.66248 -s 2 -d 1 -p ack -e 40 -c 1 -i 11 -a 1 -x {5.0 4.0 2 ------- null}
+ -t 0.66248 -s 1 -d 4 -p ack -e 40 -c 1 -i 11 -a 1 -x {5.0 4.0 2 ------- null}
- -t 0.66248 -s 1 -d 4 -p ack -e 40 -c 1 -i 11 -a 1 -x {5.0 4.0 2 ------- null}
h -t 0.66248 -s 1 -d 4 -p ack -e 40 -c 1 -i 11 -a 1 -x {5.0 4.0 -1 ------- null}
r -t 0.66448 -s 1 -d 0 -p ack -e 40 -c 1 -i 10 -a 1 -x {3.0 0.0 2 ------- null}
+ -t 0.66448 -s 0 -d 1 -p tcp -e 1040 -c 1 -i 16 -a 1 -x {0.0 3.0 5 ------- null}
+ -t 0.66448 -s 0 -d 1 -p tcp -e 1040 -c 1 -i 17 -a 1 -x {0.0 3.0 6 ------- null}
- -t 0.66448 -s 4 -d 1 -p tcp -e 1040 -c 1 -i 15 -a 1 -x {4.0 5.0 4 ------- null}
h -t 0.66448 -s 4 -d 1 -p tcp -e 1040 -c 1 -i 15 -a 1 -x {4.0 5.0 -1 ------- null}
- -t 0.66448 -s 0 -d 1 -p tcp -e 1040 -c 1 -i 16 -a 1 -x {0.0 3.0 5 ------- null}
h -t 0.66448 -s 0 -d 1 -p tcp -e 1040 -c 1 -i 16 -a 1 -x {0.0 3.0 -1 ------- null}
r -t 0.66616 -s 0 -d 1 -p tcp -e 1040 -c 1 -i 12 -a 1 -x {0.0 3.0 3 ------- null}
+ -t 0.66616 -s 1 -d 2 -p tcp -e 1040 -c 1 -i 12 -a 1 -x {0.0 3.0 3 ------- null}
- -t 0.66616 -s 1 -d 2 -p tcp -e 1040 -c 1 -i 12 -a 1 -x {0.0 3.0 3 ------- null}
h -t 0.66616 -s 1 -d 2 -p tcp -e 1040 -c 1 -i 12 -a 1 -x {0.0 3.0 -1 ------- null}
r -t 0.6728 -s 1 -d 4 -p ack -e 40 -c 1 -i 11 -a 1 -x {5.0 4.0 2 ------- null}
+ -t 0.6728 -s 4 -d 1 -p tcp -e 1040 -c 1 -i 18 -a 1 -x {4.0 5.0 5 ------- null}
+ -t 0.6728 -s 4 -d 1 -p tcp -e 1040 -c 1 -i 19 -a 1 -x {4.0 5.0 6 ------- null}
- -t 0.6728 -s 4 -d 1 -p tcp -e 1040 -c 1 -i 18 -a 1 -x {4.0 5.0 5 ------- null}
h -t 0.6728 -s 4 -d 1 -p tcp -e 1040 -c 1 -i 18 -a 1 -x {4.0 5.0 -1 ------- null}
- -t 0.6728 -s 0 -d 1 -p tcp -e 1040 -c 1 -i 17 -a 1 -x {0.0 3.0 6 ------- null}
h -t 0.6728 -s 0 -d 1 -p tcp -e 1040 -c 1 -i 17 -a 1 -x {0.0 3.0 -1 ------- null}
r -t 0.67448 -s 4 -d 1 -p tcp -e 1040 -c 1 -i 14 -a 1 -x {4.0 5.0 3 ------- null}
+ -t 0.67448 -s 1 -d 2 -p tcp -e 1040 -c 1 -i 14 -a 1 -x {4.0 5.0 3 ------- null}
r -t 0.67448 -s 0 -d 1 -p tcp -e 1040 -c 1 -i 13 -a 1 -x {0.0 3.0 4 ------- null}
+ -t 0.67448 -s 1 -d 2 -p tcp -e 1040 -c 1 -i 13 -a 1 -x {0.0 3.0 4 ------- null}
- -t 0.67448 -s 1 -d 2 -p tcp -e 1040 -c 1 -i 14 -a 1 -x {4.0 5.0 3 ------- null}
h -t 0.67448 -s 1 -d 2 -p tcp -e 1040 -c 1 -i 14 -a 1 -x {4.0 5.0 -1 ------- null}
- -t 0.68112 -s 4 -d 1 -p tcp -e 1040 -c 1 -i 19 -a 1 -x {4.0 5.0 6 ------- null}
h -t 0.68112 -s 4 -d 1 -p tcp -e 1040 -c 1 -i 19 -a 1 -x {4.0 5.0 -1 ------- null}
r -t 0.6828 -s 4 -d 1 -p tcp -e 1040 -c 1 -i 15 -a 1 -x {4.0 5.0 4 ------- null}
+ -t 0.6828 -s 1 -d 2 -p tcp -e 1040 -c 1 -i 15 -a 1 -x {4.0 5.0 4 ------- null}
r -t 0.6828 -s 0 -d 1 -p tcp -e 1040 -c 1 -i 16 -a 1 -x {0.0 3.0 5 ------- null}
+ -t 0.6828 -s 1 -d 2 -p tcp -e 1040 -c 1 -i 16 -a 1 -x {0.0 3.0 5 ------- null}
- -t 0.6828 -s 1 -d 2 -p tcp -e 1040 -c 1 -i 13 -a 1 -x {0.0 3.0 4 ------- null}
h -t 0.6828 -s 1 -d 2 -p tcp -e 1040 -c 1 -i 13 -a 1 -x {0.0 3.0 -1 ------- null}
r -t 0.68448 -s 1 -d 2 -p tcp -e 1040 -c 1 -i 12 -a 1 -x {0.0 3.0 3 ------- null}
+ -t 0.68448 -s 2 -d 3 -p tcp -e 1040 -c 1 -i 12 -a 1 -x {0.0 3.0 3 ------- null}
- -t 0.68448 -s 2 -d 3 -p tcp -e 1040 -c 1 -i 12 -a 1 -x {0.0 3.0 3 ------- null}
h -t 0.68448 -s 2 -d 3 -p tcp -e 1040 -c 1 -i 12 -a 1 -x {0.0 3.0 -1 ------- null}
r -t 0.69112 -s 4 -d 1 -p tcp -e 1040 -c 1 -i 18 -a 1 -x {4.0 5.0 5 ------- null}
+ -t 0.69112 -s 1 -d 2 -p tcp -e 1040 -c 1 -i 18 -a 1 -x {4.0 5.0 5 ------- null}
r -t 0.69112 -s 0 -d 1 -p tcp -e 1040 -c 1 -i 17 -a 1 -x {0.0 3.0 6 ------- null}
+ -t 0.69112 -s 1 -d 2 -p tcp -e 1040 -c 1 -i 17 -a 1 -x {0.0 3.0 6 ------- null}
- -t 0.69112 -s 1 -d 2 -p tcp -e 1040 -c 1 -i 15 -a 1 -x {4.0 5.0 4 ------- null}
h -t 0.69112 -s 1 -d 2 -p tcp -e 1040 -c 1 -i 15 -a 1 -x {4.0 5.0 -1 ------- null}
r -t 0.6928 -s 1 -d 2 -p tcp -e 1040 -c 1 -i 14 -a 1 -x {4.0 5.0 3 ------- null}
+ -t 0.6928 -s 2 -d 5 -p tcp -e 1040 -c 1 -i 14 -a 1 -x {4.0 5.0 3 ------- null}
- -t 0.6928 -s 2 -d 5 -p tcp -e 1040 -c 1 -i 14 -a 1 -x {4.0 5.0 3 ------- null}
h -t 0.6928 -s 2 -d 5 -p tcp -e 1040 -c 1 -i 14 -a 1 -x {4.0 5.0 -1 ------- null}
r -t 0.69944 -s 4 -d 1 -p tcp -e 1040 -c 1 -i 19 -a 1 -x {4.0 5.0 6 ------- null}
+ -t 0.69944 -s 1 -d 2 -p tcp -e 1040 -c 1 -i 19 -a 1 -x {4.0 5.0 6 ------- null}
- -t 0.69944 -s 1 -d 2 -p tcp -e 1040 -c 1 -i 16 -a 1 -x {0.0 3.0 5 ------- null}
h -t 0.69944 -s 1 -d 2 -p tcp -e 1040 -c 1 -i 16 -a 1 -x {0.0 3.0 -1 ------- null}
r -t 0.70112 -s 1 -d 2 -p tcp -e 1040 -c 1 -i 13 -a 1 -x {0.0 3.0 4 ------- null}
+ -t 0.70112 -s 2 -d 3 -p tcp -e 1040 -c 1 -i 13 -a 1 -x {0.0 3.0 4 ------- null}
- -t 0.70112 -s 2 -d 3 -p tcp -e 1040 -c 1 -i 13 -a 1 -x {0.0 3.0 4 ------- null}
h -t 0.70112 -s 2 -d 3 -p tcp -e 1040 -c 1 -i 13 -a 1 -x {0.0 3.0 -1 ------- null}
r -t 0.7028 -s 2 -d 3 -p tcp -e 1040 -c 1 -i 12 -a 1 -x {0.0 3.0 3 ------- null}
+ -t 0.7028 -s 3 -d 2 -p ack -e 40 -c 1 -i 20 -a 1 -x {3.0 0.0 3 ------- null}
- -t 0.7028 -s 3 -d 2 -p ack -e 40 -c 1 -i 20 -a 1 -x {3.0 0.0 3 ------- null}
h -t 0.7028 -s 3 -d 2 -p ack -e 40 -c 1 -i 20 -a 1 -x {3.0 0.0 -1 ------- null}
- -t 0.70776 -s 1 -d 2 -p tcp -e 1040 -c 1 -i 18 -a 1 -x {4.0 5.0 5 ------- null}
h -t 0.70776 -s 1 -d 2 -p tcp -e 1040 -c 1 -i 18 -a 1 -x {4.0 5.0 -1 ------- null}
r -t 0.70944 -s 1 -d 2 -p tcp -e 1040 -c 1 -i 15 -a 1 -x {4.0 5.0 4 ------- null}
+ -t 0.70944 -s 2 -d 5 -p tcp -e 1040 -c 1 -i 15 -a 1 -x {4.0 5.0 4 ------- null}
- -t 0.70944 -s 2 -d 5 -p tcp -e 1040 -c 1 -i 15 -a 1 -x {4.0 5.0 4 ------- null}
h -t 0.70944 -s 2 -d 5 -p tcp -e 1040 -c 1 -i 15 -a 1 -x {4.0 5.0 -1 ------- null}
r -t 0.71112 -s 2 -d 5 -p tcp -e 1040 -c 1 -i 14 -a 1 -x {4.0 5.0 3 ------- null}
+ -t 0.71112 -s 5 -d 2 -p ack -e 40 -c 1 -i 21 -a 1 -x {5.0 4.0 3 ------- null}
- -t 0.71112 -s 5 -d 2 -p ack -e 40 -c 1 -i 21 -a 1 -x {5.0 4.0 3 ------- null}
h -t 0.71112 -s 5 -d 2 -p ack -e 40 -c 1 -i 21 -a 1 -x {5.0 4.0 -1 ------- null}
r -t 0.71312 -s 3 -d 2 -p ack -e 40 -c 1 -i 20 -a 1 -x {3.0 0.0 3 ------- null}
+ -t 0.71312 -s 2 -d 1 -p ack -e 40 -c 1 -i 20 -a 1 -x {3.0 0.0 3 ------- null}
- -t 0.71312 -s 2 -d 1 -p ack -e 40 -c 1 -i 20 -a 1 -x {3.0 0.0 3 ------- null}
h -t 0.71312 -s 2 -d 1 -p ack -e 40 -c 1 -i 20 -a 1 -x {3.0 0.0 -1 ------- null}
- -t 0.71608 -s 1 -d 2 -p tcp -e 1040 -c 1 -i 17 -a 1 -x {0.0 3.0 6 ------- null}
h -t 0.71608 -s 1 -d 2 -p tcp -e 1040 -c 1 -i 17 -a 1 -x {0.0 3.0 -1 ------- null}
r -t 0.71776 -s 1 -d 2 -p tcp -e 1040 -c 1 -i 16 -a 1 -x {0.0 3.0 5 ------- null}
+ -t 0.71776 -s 2 -d 3 -p tcp -e 1040 -c 1 -i 16 -a 1 -x {0.0 3.0 5 ------- null}
- -t 0.71776 -s 2 -d 3 -p tcp -e 1040 -c 1 -i 16 -a 1 -x {0.0 3.0 5 ------- null}
h -t 0.71776 -s 2 -d 3 -p tcp -e 1040 -c 1 -i 16 -a 1 -x {0.0 3.0 -1 ------- null}
r -t 0.71944 -s 2 -d 3 -p tcp -e 1040 -c 1 -i 13 -a 1 -x {0.0 3.0 4 ------- null}
+ -t 0.71944 -s 3 -d 2 -p ack -e 40 -c 1 -i 22 -a 1 -x {3.0 0.0 4 ------- null}
- -t 0.71944 -s 3 -d 2 -p ack -e 40 -c 1 -i 22 -a 1 -x {3.0 0.0 4 ------- null}
h -t 0.71944 -s 3 -d 2 -p ack -e 40 -c 1 -i 22 -a 1 -x {3.0 0.0 -1 ------- null}
r -t 0.72144 -s 5 -d 2 -p ack -e 40 -c 1 -i 21 -a 1 -x {5.0 4.0 3 ------- null}
+ -t 0.72144 -s 2 -d 1 -p ack -e 40 -c 1 -i 21 -a 1 -x {5.0 4.0 3 ------- null}
- -t 0.72144 -s 2 -d 1 -p ack -e 40 -c 1 -i 21 -a 1 -x {5.0 4.0 3 ------- null}
h -t 0.72144 -s 2 -d 1 -p ack -e 40 -c 1 -i 21 -a 1 -x {5.0 4.0 -1 ------- null}
r -t 0.72344 -s 2 -d 1 -p ack -e 40 -c 1 -i 20 -a 1 -x {3.0 0.0 3 ------- null}
+ -t 0.72344 -s 1 -d 0 -p ack -e 40 -c 1 -i 20 -a 1 -x {3.0 0.0 3 ------- null}
- -t 0.72344 -s 1 -d 0 -p ack -e 40 -c 1 -i 20 -a 1 -x {3.0 0.0 3 ------- null}
h -t 0.72344 -s 1 -d 0 -p ack -e 40 -c 1 -i 20 -a 1 -x {3.0 0.0 -1 ------- null}
- -t 0.7244 -s 1 -d 2 -p tcp -e 1040 -c 1 -i 19 -a 1 -x {4.0 5.0 6 ------- null}
h -t 0.7244 -s 1 -d 2 -p tcp -e 1040 -c 1 -i 19 -a 1 -x {4.0 5.0 -1 ------- null}
r -t 0.72608 -s 1 -d 2 -p tcp -e 1040 -c 1 -i 18 -a 1 -x {4.0 5.0 5 ------- null}
+ -t 0.72608 -s 2 -d 5 -p tcp -e 1040 -c 1 -i 18 -a 1 -x {4.0 5.0 5 ------- null}
- -t 0.72608 -s 2 -d 5 -p tcp -e 1040 -c 1 -i 18 -a 1 -x {4.0 5.0 5 ------- null}
h -t 0.72608 -s 2 -d 5 -p tcp -e 1040 -c 1 -i 18 -a 1 -x {4.0 5.0 -1 ------- null}
r -t 0.72776 -s 2 -d 5 -p tcp -e 1040 -c 1 -i 15 -a 1 -x {4.0 5.0 4 ------- null}
+ -t 0.72776 -s 5 -d 2 -p ack -e 40 -c 1 -i 23 -a 1 -x {5.0 4.0 4 ------- null}
- -t 0.72776 -s 5 -d 2 -p ack -e 40 -c 1 -i 23 -a 1 -x {5.0 4.0 4 ------- null}
h -t 0.72776 -s 5 -d 2 -p ack -e 40 -c 1 -i 23 -a 1 -x {5.0 4.0 -1 ------- null}
r -t 0.72976 -s 3 -d 2 -p ack -e 40 -c 1 -i 22 -a 1 -x {3.0 0.0 4 ------- null}
+ -t 0.72976 -s 2 -d 1 -p ack -e 40 -c 1 -i 22 -a 1 -x {3.0 0.0 4 ------- null}
- -t 0.72976 -s 2 -d 1 -p ack -e 40 -c 1 -i 22 -a 1 -x {3.0 0.0 4 ------- null}
h -t 0.72976 -s 2 -d 1 -p ack -e 40 -c 1 -i 22 -a 1 -x {3.0 0.0 -1 ------- null}
r -t 0.73176 -s 2 -d 1 -p ack -e 40 -c 1 -i 21 -a 1 -x {5.0 4.0 3 ------- null}
+ -t 0.73176 -s 1 -d 4 -p ack -e 40 -c 1 -i 21 -a 1 -x {5.0 4.0 3 ------- null}
- -t 0.73176 -s 1 -d 4 -p ack -e 40 -c 1 -i 21 -a 1 -x {5.0 4.0 3 ------- null}
h -t 0.73176 -s 1 -d 4 -p ack -e 40 -c 1 -i 21 -a 1 -x {5.0 4.0 -1 ------- null}
r -t 0.73376 -s 1 -d 0 -p ack -e 40 -c 1 -i 20 -a 1 -x {3.0 0.0 3 ------- null}
+ -t 0.73376 -s 0 -d 1 -p tcp -e 1040 -c 1 -i 24 -a 1 -x {0.0 3.0 7 ------- null}
- -t 0.73376 -s 0 -d 1 -p tcp -e 1040 -c 1 -i 24 -a 1 -x {0.0 3.0 7 ------- null}
h -t 0.73376 -s 0 -d 1 -p tcp -e 1040 -c 1 -i 24 -a 1 -x {0.0 3.0 -1 ------- null}
+ -t 0.73376 -s 0 -d 1 -p tcp -e 1040 -c 1 -i 25 -a 1 -x {0.0 3.0 8 ------- null}
r -t 0.7344 -s 1 -d 2 -p tcp -e 1040 -c 1 -i 17 -a 1 -x {0.0 3.0 6 ------- null}
+ -t 0.7344 -s 2 -d 3 -p tcp -e 1040 -c 1 -i 17 -a 1 -x {0.0 3.0 6 ------- null}
- -t 0.7344 -s 2 -d 3 -p tcp -e 1040 -c 1 -i 17 -a 1 -x {0.0 3.0 6 ------- null}
h -t 0.7344 -s 2 -d 3 -p tcp -e 1040 -c 1 -i 17 -a 1 -x {0.0 3.0 -1 ------- null}
r -t 0.73608 -s 2 -d 3 -p tcp -e 1040 -c 1 -i 16 -a 1 -x {0.0 3.0 5 ------- null}
+ -t 0.73608 -s 3 -d 2 -p ack -e 40 -c 1 -i 26 -a 1 -x {3.0 0.0 5 ------- null}
- -t 0.73608 -s 3 -d 2 -p ack -e 40 -c 1 -i 26 -a 1 -x {3.0 0.0 5 ------- null}
h -t 0.73608 -s 3 -d 2 -p ack -e 40 -c 1 -i 26 -a 1 -x {3.0 0.0 -1 ------- null}
r -t 0.73808 -s 5 -d 2 -p ack -e 40 -c 1 -i 23 -a 1 -x {5.0 4.0 4 ------- null}
+ -t 0.73808 -s 2 -d 1 -p ack -e 40 -c 1 -i 23 -a 1 -x {5.0 4.0 4 ------- null}
- -t 0.73808 -s 2 -d 1 -p ack -e 40 -c 1 -i 23 -a 1 -x {5.0 4.0 4 ------- null}
h -t 0.73808 -s 2 -d 1 -p ack -e 40 -c 1 -i 23 -a 1 -x {5.0 4.0 -1 ------- null}
r -t 0.74008 -s 2 -d 1 -p ack -e 40 -c 1 -i 22 -a 1 -x {3.0 0.0 4 ------- null}
+ -t 0.74008 -s 1 -d 0 -p ack -e 40 -c 1 -i 22 -a 1 -x {3.0 0.0 4 ------- null}
- -t 0.74008 -s 1 -d 0 -p ack -e 40 -c 1 -i 22 -a 1 -x {3.0 0.0 4 ------- null}
h -t 0.74008 -s 1 -d 0 -p ack -e 40 -c 1 -i 22 -a 1 -x {3.0 0.0 -1 ------- null}
r -t 0.74208 -s 1 -d 4 -p ack -e 40 -c 1 -i 21 -a 1 -x {5.0 4.0 3 ------- null}
+ -t 0.74208 -s 4 -d 1 -p tcp -e 1040 -c 1 -i 27 -a 1 -x {4.0 5.0 7 ------- null}
- -t 0.74208 -s 4 -d 1 -p tcp -e 1040 -c 1 -i 27 -a 1 -x {4.0 5.0 7 ------- null}
h -t 0.74208 -s 4 -d 1 -p tcp -e 1040 -c 1 -i 27 -a 1 -x {4.0 5.0 -1 ------- null}
+ -t 0.74208 -s 4 -d 1 -p tcp -e 1040 -c 1 -i 28 -a 1 -x {4.0 5.0 8 ------- null}
- -t 0.74208 -s 0 -d 1 -p tcp -e 1040 -c 1 -i 25 -a 1 -x {0.0 3.0 8 ------- null}
h -t 0.74208 -s 0 -d 1 -p tcp -e 1040 -c 1 -i 25 -a 1 -x {0.0 3.0 -1 ------- null}
r -t 0.74272 -s 1 -d 2 -p tcp -e 1040 -c 1 -i 19 -a 1 -x {4.0 5.0 6 ------- null}
+ -t 0.74272 -s 2 -d 5 -p tcp -e 1040 -c 1 -i 19 -a 1 -x {4.0 5.0 6 ------- null}
- -t 0.74272 -s 2 -d 5 -p tcp -e 1040 -c 1 -i 19 -a 1 -x {4.0 5.0 6 ------- null}
h -t 0.74272 -s 2 -d 5 -p tcp -e 1040 -c 1 -i 19 -a 1 -x {4.0 5.0 -1 ------- null}
r -t 0.7444 -s 2 -d 5 -p tcp -e 1040 -c 1 -i 18 -a 1 -x {4.0 5.0 5 ------- null}
+ -t 0.7444 -s 5 -d 2 -p ack -e 40 -c 1 -i 29 -a 1 -x {5.0 4.0 5 ------- null}
- -t 0.7444 -s 5 -d 2 -p ack -e 40 -c 1 -i 29 -a 1 -x {5.0 4.0 5 ------- null}
h -t 0.7444 -s 5 -d 2 -p ack -e 40 -c 1 -i 29 -a 1 -x {5.0 4.0 -1 ------- null}
r -t 0.7464 -s 3 -d 2 -p ack -e 40 -c 1 -i 26 -a 1 -x {3.0 0.0 5 ------- null}
+ -t 0.7464 -s 2 -d 1 -p ack -e 40 -c 1 -i 26 -a 1 -x {3.0 0.0 5 ------- null}
- -t 0.7464 -s 2 -d 1 -p ack -e 40 -c 1 -i 26 -a 1 -x {3.0 0.0 5 ------- null}
h -t 0.7464 -s 2 -d 1 -p ack -e 40 -c 1 -i 26 -a 1 -x {3.0 0.0 -1 ------- null}
r -t 0.7484 -s 2 -d 1 -p ack -e 40 -c 1 -i 23 -a 1 -x {5.0 4.0 4 ------- null}
+ -t 0.7484 -s 1 -d 4 -p ack -e 40 -c 1 -i 23 -a 1 -x {5.0 4.0 4 ------- null}
- -t 0.7484 -s 1 -d 4 -p ack -e 40 -c 1 -i 23 -a 1 -x {5.0 4.0 4 ------- null}
h -t 0.7484 -s 1 -d 4 -p ack -e 40 -c 1 -i 23 -a 1 -x {5.0 4.0 -1 ------- null}
r -t 0.7504 -s 1 -d 0 -p ack -e 40 -c 1 -i 22 -a 1 -x {3.0 0.0 4 ------- null}
+ -t 0.7504 -s 0 -d 1 -p tcp -e 1040 -c 1 -i 30 -a 1 -x {0.0 3.0 9 ------- null}
+ -t 0.7504 -s 0 -d 1 -p tcp -e 1040 -c 1 -i 31 -a 1 -x {0.0 3.0 10 ------- null}
- -t 0.7504 -s 4 -d 1 -p tcp -e 1040 -c 1 -i 28 -a 1 -x {4.0 5.0 8 ------- null}
h -t 0.7504 -s 4 -d 1 -p tcp -e 1040 -c 1 -i 28 -a 1 -x {4.0 5.0 -1 ------- null}
- -t 0.7504 -s 0 -d 1 -p tcp -e 1040 -c 1 -i 30 -a 1 -x {0.0 3.0 9 ------- null}
h -t 0.7504 -s 0 -d 1 -p tcp -e 1040 -c 1 -i 30 -a 1 -x {0.0 3.0 -1 ------- null}
r -t 0.75208 -s 0 -d 1 -p tcp -e 1040 -c 1 -i 24 -a 1 -x {0.0 3.0 7 ------- null}
+ -t 0.75208 -s 1 -d 2 -p tcp -e 1040 -c 1 -i 24 -a 1 -x {0.0 3.0 7 ------- null}
- -t 0.75208 -s 1 -d 2 -p tcp -e 1040 -c 1 -i 24 -a 1 -x {0.0 3.0 7 ------- null}
h -t 0.75208 -s 1 -d 2 -p tcp -e 1040 -c 1 -i 24 -a 1 -x {0.0 3.0 -1 ------- null}
r -t 0.75272 -s 2 -d 3 -p tcp -e 1040 -c 1 -i 17 -a 1 -x {0.0 3.0 6 ------- null}
+ -t 0.75272 -s 3 -d 2 -p ack -e 40 -c 1 -i 32 -a 1 -x {3.0 0.0 6 ------- null}
- -t 0.75272 -s 3 -d 2 -p ack -e 40 -c 1 -i 32 -a 1 -x {3.0 0.0 6 ------- null}
h -t 0.75272 -s 3 -d 2 -p ack -e 40 -c 1 -i 32 -a 1 -x {3.0 0.0 -1 ------- null}
r -t 0.75472 -s 5 -d 2 -p ack -e 40 -c 1 -i 29 -a 1 -x {5.0 4.0 5 ------- null}
+ -t 0.75472 -s 2 -d 1 -p ack -e 40 -c 1 -i 29 -a 1 -x {5.0 4.0 5 ------- null}
- -t 0.75472 -s 2 -d 1 -p ack -e 40 -c 1 -i 29 -a 1 -x {5.0 4.0 5 ------- null}
h -t 0.75472 -s 2 -d 1 -p ack -e 40 -c 1 -i 29 -a 1 -x {5.0 4.0 -1 ------- null}
r -t 0.75672 -s 2 -d 1 -p ack -e 40 -c 1 -i 26 -a 1 -x {3.0 0.0 5 ------- null}
+ -t 0.75672 -s 1 -d 0 -p ack -e 40 -c 1 -i 26 -a 1 -x {3.0 0.0 5 ------- null}
- -t 0.75672 -s 1 -d 0 -p ack -e 40 -c 1 -i 26 -a 1 -x {3.0 0.0 5 ------- null}
h -t 0.75672 -s 1 -d 0 -p ack -e 40 -c 1 -i 26 -a 1 -x {3.0 0.0 -1 ------- null}
r -t 0.75872 -s 1 -d 4 -p ack -e 40 -c 1 -i 23 -a 1 -x {5.0 4.0 4 ------- null}
+ -t 0.75872 -s 4 -d 1 -p tcp -e 1040 -c 1 -i 33 -a 1 -x {4.0 5.0 9 ------- null}
+ -t 0.75872 -s 4 -d 1 -p tcp -e 1040 -c 1 -i 34 -a 1 -x {4.0 5.0 10 ------- null}
- -t 0.75872 -s 4 -d 1 -p tcp -e 1040 -c 1 -i 33 -a 1 -x {4.0 5.0 9 ------- null}
h -t 0.75872 -s 4 -d 1 -p tcp -e 1040 -c 1 -i 33 -a 1 -x {4.0 5.0 -1 ------- null}
- -t 0.75872 -s 0 -d 1 -p tcp -e 1040 -c 1 -i 31 -a 1 -x {0.0 3.0 10 ------- null}
h -t 0.75872 -s 0 -d 1 -p tcp -e 1040 -c 1 -i 31 -a 1 -x {0.0 3.0 -1 ------- null}
r -t 0.7604 -s 4 -d 1 -p tcp -e 1040 -c 1 -i 27 -a 1 -x {4.0 5.0 7 ------- null}
+ -t 0.7604 -s 1 -d 2 -p tcp -e 1040 -c 1 -i 27 -a 1 -x {4.0 5.0 7 ------- null}
r -t 0.7604 -s 0 -d 1 -p tcp -e 1040 -c 1 -i 25 -a 1 -x {0.0 3.0 8 ------- null}
+ -t 0.7604 -s 1 -d 2 -p tcp -e 1040 -c 1 -i 25 -a 1 -x {0.0 3.0 8 ------- null}
- -t 0.7604 -s 1 -d 2 -p tcp -e 1040 -c 1 -i 27 -a 1 -x {4.0 5.0 7 ------- null}
h -t 0.7604 -s 1 -d 2 -p tcp -e 1040 -c 1 -i 27 -a 1 -x {4.0 5.0 -1 ------- null}
r -t 0.76104 -s 2 -d 5 -p tcp -e 1040 -c 1 -i 19 -a 1 -x {4.0 5.0 6 ------- null}
+ -t 0.76104 -s 5 -d 2 -p ack -e 40 -c 1 -i 35 -a 1 -x {5.0 4.0 6 ------- null}
- -t 0.76104 -s 5 -d 2 -p ack -e 40 -c 1 -i 35 -a 1 -x {5.0 4.0 6 ------- null}
h -t 0.76104 -s 5 -d 2 -p ack -e 40 -c 1 -i 35 -a 1 -x {5.0 4.0 -1 ------- null}
r -t 0.76304 -s 3 -d 2 -p ack -e 40 -c 1 -i 32 -a 1 -x {3.0 0.0 6 ------- null}
+ -t 0.76304 -s 2 -d 1 -p ack -e 40 -c 1 -i 32 -a 1 -x {3.0 0.0 6 ------- null}
- -t 0.76304 -s 2 -d 1 -p ack -e 40 -c 1 -i 32 -a 1 -x {3.0 0.0 6 ------- null}
h -t 0.76304 -s 2 -d 1 -p ack -e 40 -c 1 -i 32 -a 1 -x {3.0 0.0 -1 ------- null}
r -t 0.76504 -s 2 -d 1 -p ack -e 40 -c 1 -i 29 -a 1 -x {5.0 4.0 5 ------- null}
+ -t 0.76504 -s 1 -d 4 -p ack -e 40 -c 1 -i 29 -a 1 -x {5.0 4.0 5 ------- null}
- -t 0.76504 -s 1 -d 4 -p ack -e 40 -c 1 -i 29 -a 1 -x {5.0 4.0 5 ------- null}
h -t 0.76504 -s 1 -d 4 -p ack -e 40 -c 1 -i 29 -a 1 -x {5.0 4.0 -1 ------- null}
r -t 0.76704 -s 1 -d 0 -p ack -e 40 -c 1 -i 26 -a 1 -x {3.0 0.0 5 ------- null}
+ -t 0.76704 -s 0 -d 1 -p tcp -e 1040 -c 1 -i 36 -a 1 -x {0.0 3.0 11 ------- null}
+ -t 0.76704 -s 0 -d 1 -p tcp -e 1040 -c 1 -i 37 -a 1 -x {0.0 3.0 12 ------- null}
- -t 0.76704 -s 4 -d 1 -p tcp -e 1040 -c 1 -i 34 -a 1 -x {4.0 5.0 10 ------- null}
h -t 0.76704 -s 4 -d 1 -p tcp -e 1040 -c 1 -i 34 -a 1 -x {4.0 5.0 -1 ------- null}
- -t 0.76704 -s 0 -d 1 -p tcp -e 1040 -c 1 -i 36 -a 1 -x {0.0 3.0 11 ------- null}
h -t 0.76704 -s 0 -d 1 -p tcp -e 1040 -c 1 -i 36 -a 1 -x {0.0 3.0 -1 ------- null}
r -t 0.76872 -s 4 -d 1 -p tcp -e 1040 -c 1 -i 28 -a 1 -x {4.0 5.0 8 ------- null}
+ -t 0.76872 -s 1 -d 2 -p tcp -e 1040 -c 1 -i 28 -a 1 -x {4.0 5.0 8 ------- null}
r -t 0.76872 -s 0 -d 1 -p tcp -e 1040 -c 1 -i 30 -a 1 -x {0.0 3.0 9 ------- null}