V -t * -v 1.0a5 -a 0
A -t * -n 1 -p 0 -o 0x7fffffff -c 30 -a 1
A -t * -h 1 -m 1073741823 -s 0
n -t * -a 4 -s 4 -S UP -v circle -c black -i black
n -t * -a 0 -s 0 -S UP -v circle -c black -i black
n -t * -a 5 -s 5 -S UP -v circle -c black -i black
n -t * -a 1 -s 1 -S UP -v circle -c black -i black
n -t * -a 2 -s 2 -S UP -v circle -c black -i black
n -t * -a 3 -s 3 -S UP -v circle -c black -i black
l -t * -s 0 -d 1 -S UP -r 1000000 -D 0.01 -c black -o right-down
l -t * -s 4 -d 1 -S UP -r 1000000 -D 0.01 -c black -o right-up
l -t * -s 1 -d 2 -S UP -r 1000000 -D 0.01 -c black -o right
l -t * -s 2 -d 3 -S UP -r 1000000 -D 0.01 -c black -o right-up
l -t * -s 2 -d 5 -S UP -r 1000000 -D 0.01 -c black -o right-down
+ -t 0.5 -s 1 -d 2 -p cbr -e 500 -c 0 -i 0 -a 0 -x {1.0 2.0 0 ------- null}
- -t 0.5 -s 1 -d 2 -p cbr -e 500 -c 0 -i 0 -a 0 -x {1.0 2.0 0 ------- null}
h -t 0.5 -s 1 -d 2 -p cbr -e 500 -c 0 -i 0 -a 0 -x {1.0 2.0 -1 ------- null}
+ -t 0.5 -s 0 -d 1 -p tcp -e 1000 -c 1 -i 1 -a 1 -x {0.0 3.0 0 ------- null}
- -t 0.5 -s 0 -d 1 -p tcp -e 1000 -c 1 -i 1 -a 1 -x {0.0 3.0 0 ------- null}
h -t 0.5 -s 0 -d 1 -p tcp -e 1000 -c 1 -i 1 -a 1 -x {0.0 3.0 -1 ------- null}
+ -t 0.505 -s 1 -d 2 -p cbr -e 500 -c 0 -i 2 -a 0 -x {1.0 2.0 1 ------- null}
- -t 0.505 -s 1 -d 2 -p cbr -e 500 -c 0 -i 2 -a 0 -x {1.0 2.0 1 ------- null}
h -t 0.505 -s 1 -d 2 -p cbr -e 500 -c 0 -i 2 -a 0 -x {1.0 2.0 -1 ------- null}
+ -t 0.51 -s 1 -d 2 -p cbr -e 500 -c 0 -i 3 -a 0 -x {1.0 2.0 2 ------- null}
- -t 0.51 -s 1 -d 2 -p cbr -e 500 -c 0 -i 3 -a 0 -x {1.0 2.0 2 ------- null}
h -t 0.51 -s 1 -d 2 -p cbr -e 500 -c 0 -i 3 -a 0 -x {1.0 2.0 -1 ------- null}
r -t 0.514 -s 1 -d 2 -p cbr -e 500 -c 0 -i 0 -a 0 -x {1.0 2.0 0 ------- null}
+ -t 0.515 -s 1 -d 2 -p cbr -e 500 -c 0 -i 4 -a 0 -x {1.0 2.0 3 ------- null}
- -t 0.515 -s 1 -d 2 -p cbr -e 500 -c 0 -i 4 -a 0 -x {1.0 2.0 3 ------- null}
h -t 0.515 -s 1 -d 2 -p cbr -e 500 -c 0 -i 4 -a 0 -x {1.0 2.0 -1 ------- null}
r -t 0.518 -s 0 -d 1 -p tcp -e 1000 -c 1 -i 1 -a 1 -x {0.0 3.0 0 ------- null}
+ -t 0.518 -s 1 -d 2 -p tcp -e 1000 -c 1 -i 1 -a 1 -x {0.0 3.0 0 ------- null}
r -t 0.519 -s 1 -d 2 -p cbr -e 500 -c 0 -i 2 -a 0 -x {1.0 2.0 1 ------- null}
- -t 0.519 -s 1 -d 2 -p tcp -e 1000 -c 1 -i 1 -a 1 -x {0.0 3.0 0 ------- null}
h -t 0.519 -s 1 -d 2 -p tcp -e 1000 -c 1 -i 1 -a 1 -x {0.0 3.0 -1 ------- null}
+ -t 0.52 -s 1 -d 2 -p cbr -e 500 -c 0 -i 5 -a 0 -x {1.0 2.0 4 ------- null}
r -t 0.524 -s 1 -d 2 -p cbr -e 500 -c 0 -i 3 -a 0 -x {1.0 2.0 2 ------- null}
+ -t 0.525 -s 1 -d 2 -p cbr -e 500 -c 0 -i 6 -a 0 -x {1.0 2.0 5 ------- null}
- -t 0.527 -s 1 -d 2 -p cbr -e 500 -c 0 -i 5 -a 0 -x {1.0 2.0 4 ------- null}
h -t 0.527 -s 1 -d 2 -p cbr -e 500 -c 0 -i 5 -a 0 -x {1.0 2.0 -1 ------- null}
r -t 0.529 -s 1 -d 2 -p cbr -e 500 -c 0 -i 4 -a 0 -x {1.0 2.0 3 ------- null}
+ -t 0.53 -s 1 -d 2 -p cbr -e 500 -c 0 -i 7 -a 0 -x {1.0 2.0 6 ------- null}
- -t 0.531 -s 1 -d 2 -p cbr -e 500 -c 0 -i 6 -a 0 -x {1.0 2.0 5 ------- null}
h -t 0.531 -s 1 -d 2 -p cbr -e 500 -c 0 -i 6 -a 0 -x {1.0 2.0 -1 ------- null}
+ -t 0.535 -s 1 -d 2 -p cbr -e 500 -c 0 -i 8 -a 0 -x {1.0 2.0 7 ------- null}
- -t 0.535 -s 1 -d 2 -p cbr -e 500 -c 0 -i 7 -a 0 -x {1.0 2.0 6 ------- null}
h -t 0.535 -s 1 -d 2 -p cbr -e 500 -c 0 -i 7 -a 0 -x {1.0 2.0 -1 ------- null}
r -t 0.537 -s 1 -d 2 -p tcp -e 1000 -c 1 -i 1 -a 1 -x {0.0 3.0 0 ------- null}
+ -t 0.537 -s 2 -d 3 -p tcp -e 1000 -c 1 -i 1 -a 1 -x {0.0 3.0 0 ------- null}
- -t 0.537 -s 2 -d 3 -p tcp -e 1000 -c 1 -i 1 -a 1 -x {0.0 3.0 0 ------- null}
h -t 0.537 -s 2 -d 3 -p tcp -e 1000 -c 1 -i 1 -a 1 -x {0.0 3.0 -1 ------- null}
- -t 0.539 -s 1 -d 2 -p cbr -e 500 -c 0 -i 8 -a 0 -x {1.0 2.0 7 ------- null}
h -t 0.539 -s 1 -d 2 -p cbr -e 500 -c 0 -i 8 -a 0 -x {1.0 2.0 -1 ------- null}
+ -t 0.54 -s 1 -d 2 -p cbr -e 500 -c 0 -i 9 -a 0 -x {1.0 2.0 8 ------- null}
r -t 0.541 -s 1 -d 2 -p cbr -e 500 -c 0 -i 5 -a 0 -x {1.0 2.0 4 ------- null}
- -t 0.543 -s 1 -d 2 -p cbr -e 500 -c 0 -i 9 -a 0 -x {1.0 2.0 8 ------- null}
h -t 0.543 -s 1 -d 2 -p cbr -e 500 -c 0 -i 9 -a 0 -x {1.0 2.0 -1 ------- null}
r -t 0.545 -s 1 -d 2 -p cbr -e 500 -c 0 -i 6 -a 0 -x {1.0 2.0 5 ------- null}
+ -t 0.545 -s 1 -d 2 -p cbr -e 500 -c 0 -i 10 -a 0 -x {1.0 2.0 9 ------- null}
- -t 0.547 -s 1 -d 2 -p cbr -e 500 -c 0 -i 10 -a 0 -x {1.0 2.0 9 ------- null}
h -t 0.547 -s 1 -d 2 -p cbr -e 500 -c 0 -i 10 -a 0 -x {1.0 2.0 -1 ------- null}
r -t 0.549 -s 1 -d 2 -p cbr -e 500 -c 0 -i 7 -a 0 -x {1.0 2.0 6 ------- null}
+ -t 0.55 -s 1 -d 2 -p cbr -e 500 -c 0 -i 11 -a 0 -x {1.0 2.0 10 ------- null}
- -t 0.551 -s 1 -d 2 -p cbr -e 500 -c 0 -i 11 -a 0 -x {1.0 2.0 10 ------- null}
h -t 0.551 -s 1 -d 2 -p cbr -e 500 -c 0 -i 11 -a 0 -x {1.0 2.0 -1 ------- null}
r -t 0.553 -s 1 -d 2 -p cbr -e 500 -c 0 -i 8 -a 0 -x {1.0 2.0 7 ------- null}
r -t 0.555 -s 2 -d 3 -p tcp -e 1000 -c 1 -i 1 -a 1 -x {0.0 3.0 0 ------- null}
+ -t 0.555 -s 3 -d 2 -p ack -e 40 -c 1 -i 12 -a 1 -x {3.0 0.0 0 ------- null}
- -t 0.555 -s 3 -d 2 -p ack -e 40 -c 1 -i 12 -a 1 -x {3.0 0.0 0 ------- null}
h -t 0.555 -s 3 -d 2 -p ack -e 40 -c 1 -i 12 -a 1 -x {3.0 0.0 -1 ------- null}
+ -t 0.555 -s 1 -d 2 -p cbr -e 500 -c 0 -i 13 -a 0 -x {1.0 2.0 11 ------- null}
- -t 0.555 -s 1 -d 2 -p cbr -e 500 -c 0 -i 13 -a 0 -x {1.0 2.0 11 ------- null}
h -t 0.555 -s 1 -d 2 -p cbr -e 500 -c 0 -i 13 -a 0 -x {1.0 2.0 -1 ------- null}
r -t 0.557 -s 1 -d 2 -p cbr -e 500 -c 0 -i 9 -a 0 -x {1.0 2.0 8 ------- null}
+ -t 0.56 -s 1 -d 2 -p cbr -e 500 -c 0 -i 14 -a 0 -x {1.0 2.0 12 ------- null}
- -t 0.56 -s 1 -d 2 -p cbr -e 500 -c 0 -i 14 -a 0 -x {1.0 2.0 12 ------- null}
h -t 0.56 -s 1 -d 2 -p cbr -e 500 -c 0 -i 14 -a 0 -x {1.0 2.0 -1 ------- null}
r -t 0.561 -s 1 -d 2 -p cbr -e 500 -c 0 -i 10 -a 0 -x {1.0 2.0 9 ------- null}
r -t 0.565 -s 1 -d 2 -p cbr -e 500 -c 0 -i 11 -a 0 -x {1.0 2.0 10 ------- null}
+ -t 0.565 -s 1 -d 2 -p cbr -e 500 -c 0 -i 15 -a 0 -x {1.0 2.0 13 ------- null}
- -t 0.565 -s 1 -d 2 -p cbr -e 500 -c 0 -i 15 -a 0 -x {1.0 2.0 13 ------- null}
h -t 0.565 -s 1 -d 2 -p cbr -e 500 -c 0 -i 15 -a 0 -x {1.0 2.0 -1 ------- null}
r -t 0.56532 -s 3 -d 2 -p ack -e 40 -c 1 -i 12 -a 1 -x {3.0 0.0 0 ------- null}
+ -t 0.56532 -s 2 -d 1 -p ack -e 40 -c 1 -i 12 -a 1 -x {3.0 0.0 0 ------- null}
- -t 0.56532 -s 2 -d 1 -p ack -e 40 -c 1 -i 12 -a 1 -x {3.0 0.0 0 ------- null}
h -t 0.56532 -s 2 -d 1 -p ack -e 40 -c 1 -i 12 -a 1 -x {3.0 0.0 -1 ------- null}
r -t 0.569 -s 1 -d 2 -p cbr -e 500 -c 0 -i 13 -a 0 -x {1.0 2.0 11 ------- null}
+ -t 0.57 -s 1 -d 2 -p cbr -e 500 -c 0 -i 16 -a 0 -x {1.0 2.0 14 ------- null}
- -t 0.57 -s 1 -d 2 -p cbr -e 500 -c 0 -i 16 -a 0 -x {1.0 2.0 14 ------- null}
h -t 0.57 -s 1 -d 2 -p cbr -e 500 -c 0 -i 16 -a 0 -x {1.0 2.0 -1 ------- null}
r -t 0.574 -s 1 -d 2 -p cbr -e 500 -c 0 -i 14 -a 0 -x {1.0 2.0 12 ------- null}
+ -t 0.575 -s 1 -d 2 -p cbr -e 500 -c 0 -i 17 -a 0 -x {1.0 2.0 15 ------- null}
- -t 0.575 -s 1 -d 2 -p cbr -e 500 -c 0 -i 17 -a 0 -x {1.0 2.0 15 ------- null}
h -t 0.575 -s 1 -d 2 -p cbr -e 500 -c 0 -i 17 -a 0 -x {1.0 2.0 -1 ------- null}
r -t 0.57564 -s 2 -d 1 -p ack -e 40 -c 1 -i 12 -a 1 -x {3.0 0.0 0 ------- null}
+ -t 0.57564 -s 1 -d 0 -p ack -e 40 -c 1 -i 12 -a 1 -x {3.0 0.0 0 ------- null}
- -t 0.57564 -s 1 -d 0 -p ack -e 40 -c 1 -i 12 -a 1 -x {3.0 0.0 0 ------- null}
h -t 0.57564 -s 1 -d 0 -p ack -e 40 -c 1 -i 12 -a 1 -x {3.0 0.0 -1 ------- null}
r -t 0.579 -s 1 -d 2 -p cbr -e 500 -c 0 -i 15 -a 0 -x {1.0 2.0 13 ------- null}
+ -t 0.58 -s 1 -d 2 -p cbr -e 500 -c 0 -i 18 -a 0 -x {1.0 2.0 16 ------- null}
- -t 0.58 -s 1 -d 2 -p cbr -e 500 -c 0 -i 18 -a 0 -x {1.0 2.0 16 ------- null}
h -t 0.58 -s 1 -d 2 -p cbr -e 500 -c 0 -i 18 -a 0 -x {1.0 2.0 -1 ------- null}
r -t 0.584 -s 1 -d 2 -p cbr -e 500 -c 0 -i 16 -a 0 -x {1.0 2.0 14 ------- null}
+ -t 0.585 -s 1 -d 2 -p cbr -e 500 -c 0 -i 19 -a 0 -x {1.0 2.0 17 ------- null}
- -t 0.585 -s 1 -d 2 -p cbr -e 500 -c 0 -i 19 -a 0 -x {1.0 2.0 17 ------- null}
h -t 0.585 -s 1 -d 2 -p cbr -e 500 -c 0 -i 19 -a 0 -x {1.0 2.0 -1 ------- null}
r -t 0.58596 -s 1 -d 0 -p ack -e 40 -c 1 -i 12 -a 1 -x {3.0 0.0 0 ------- null}
+ -t 0.58596 -s 0 -d 1 -p tcp -e 1000 -c 1 -i 20 -a 1 -x {0.0 3.0 1 ------- null}
- -t 0.58596 -s 0 -d 1 -p tcp -e 1000 -c 1 -i 20 -a 1 -x {0.0 3.0 1 ------- null}
h -t 0.58596 -s 0 -d 1 -p tcp -e 1000 -c 1 -i 20 -a 1 -x {0.0 3.0 -1 ------- null}
r -t 0.589 -s 1 -d 2 -p cbr -e 500 -c 0 -i 17 -a 0 -x {1.0 2.0 15 ------- null}
+ -t 0.59 -s 1 -d 2 -p cbr -e 500 -c 0 -i 21 -a 0 -x {1.0 2.0 18 ------- null}
- -t 0.59 -s 1 -d 2 -p cbr -e 500 -c 0 -i 21 -a 0 -x {1.0 2.0 18 ------- null}
h -t 0.59 -s 1 -d 2 -p cbr -e 500 -c 0 -i 21 -a 0 -x {1.0 2.0 -1 ------- null}
r -t 0.594 -s 1 -d 2 -p cbr -e 500 -c 0 -i 18 -a 0 -x {1.0 2.0 16 ------- null}
+ -t 0.595 -s 1 -d 2 -p cbr -e 500 -c 0 -i 22 -a 0 -x {1.0 2.0 19 ------- null}
- -t 0.595 -s 1 -d 2 -p cbr -e 500 -c 0 -i 22 -a 0 -x {1.0 2.0 19 ------- null}
h -t 0.595 -s 1 -d 2 -p cbr -e 500 -c 0 -i 22 -a 0 -x {1.0 2.0 -1 ------- null}
r -t 0.599 -s 1 -d 2 -p cbr -e 500 -c 0 -i 19 -a 0 -x {1.0 2.0 17 ------- null}
+ -t 0.6 -s 1 -d 2 -p cbr -e 500 -c 0 -i 23 -a 0 -x {1.0 2.0 20 ------- null}
- -t 0.6 -s 1 -d 2 -p cbr -e 500 -c 0 -i 23 -a 0 -x {1.0 2.0 20 ------- null}
h -t 0.6 -s 1 -d 2 -p cbr -e 500 -c 0 -i 23 -a 0 -x {1.0 2.0 -1 ------- null}
r -t 0.60396 -s 0 -d 1 -p tcp -e 1000 -c 1 -i 20 -a 1 -x {0.0 3.0 1 ------- null}
+ -t 0.60396 -s 1 -d 2 -p tcp -e 1000 -c 1 -i 20 -a 1 -x {0.0 3.0 1 ------- null}
r -t 0.604 -s 1 -d 2 -p cbr -e 500 -c 0 -i 21 -a 0 -x {1.0 2.0 18 ------- null}
- -t 0.604 -s 1 -d 2 -p tcp -e 1000 -c 1 -i 20 -a 1 -x {0.0 3.0 1 ------- null}
h -t 0.604 -s 1 -d 2 -p tcp -e 1000 -c 1 -i 20 -a 1 -x {0.0 3.0 -1 ------- null}
+ -t 0.605 -s 1 -d 2 -p cbr -e 500 -c 0 -i 24 -a 0 -x {1.0 2.0 21 ------- null}
r -t 0.609 -s 1 -d 2 -p cbr -e 500 -c 0 -i 22 -a 0 -x {1.0 2.0 19 ------- null}
+ -t 0.61 -s 1 -d 2 -p cbr -e 500 -c 0 -i 25 -a 0 -x {1.0 2.0 22 ------- null}
- -t 0.612 -s 1 -d 2 -p cbr -e 500 -c 0 -i 24 -a 0 -x {1.0 2.0 21 ------- null}
h -t 0.612 -s 1 -d 2 -p cbr -e 500 -c 0 -i 24 -a 0 -x {1.0 2.0 -1 ------- null}
r -t 0.614 -s 1 -d 2 -p cbr -e 500 -c 0 -i 23 -a 0 -x {1.0 2.0 20 ------- null}
+ -t 0.615 -s 1 -d 2 -p cbr -e 500 -c 0 -i 26 -a 0 -x {1.0 2.0 23 ------- null}
- -t 0.616 -s 1 -d 2 -p cbr -e 500 -c 0 -i 25 -a 0 -x {1.0 2.0 22 ------- null}
h -t 0.616 -s 1 -d 2 -p cbr -e 500 -c 0 -i 25 -a 0 -x {1.0 2.0 -1 ------- null}
+ -t 0.62 -s 1 -d 2 -p cbr -e 500 -c 0 -i 27 -a 0 -x {1.0 2.0 24 ------- null}
- -t 0.62 -s 1 -d 2 -p cbr -e 500 -c 0 -i 26 -a 0 -x {1.0 2.0 23 ------- null}
h -t 0.62 -s 1 -d 2 -p cbr -e 500 -c 0 -i 26 -a 0 -x {1.0 2.0 -1 ------- null}
r -t 0.622 -s 1 -d 2 -p tcp -e 1000 -c 1 -i 20 -a 1 -x {0.0 3.0 1 ------- null}
+ -t 0.622 -s 2 -d 3 -p tcp -e 1000 -c 1 -i 20 -a 1 -x {0.0 3.0 1 ------- null}
- -t 0.622 -s 2 -d 3 -p tcp -e 1000 -c 1 -i 20 -a 1 -x {0.0 3.0 1 ------- null}
h -t 0.622 -s 2 -d 3 -p tcp -e 1000 -c 1 -i 20 -a 1 -x {0.0 3.0 -1 ------- null}
- -t 0.624 -s 1 -d 2 -p cbr -e 500 -c 0 -i 27 -a 0 -x {1.0 2.0 24 ------- null}
h -t 0.624 -s 1 -d 2 -p cbr -e 500 -c 0 -i 27 -a 0 -x {1.0 2.0 -1 ------- null}
+ -t 0.625 -s 1 -d 2 -p cbr -e 500 -c 0 -i 28 -a 0 -x {1.0 2.0 25 ------- null}
r -t 0.626 -s 1 -d 2 -p cbr -e 500 -c 0 -i 24 -a 0 -x {1.0 2.0 21 ------- null}
- -t 0.628 -s 1 -d 2 -p cbr -e 500 -c 0 -i 28 -a 0 -x {1.0 2.0 25 ------- null}
h -t 0.628 -s 1 -d 2 -p cbr -e 500 -c 0 -i 28 -a 0 -x {1.0 2.0 -1 ------- null}
r -t 0.63 -s 1 -d 2 -p cbr -e 500 -c 0 -i 25 -a 0 -x {1.0 2.0 22 ------- null}
+ -t 0.63 -s 1 -d 2 -p cbr -e 500 -c 0 -i 29 -a 0 -x {1.0 2.0 26 ------- null}
- -t 0.632 -s 1 -d 2 -p cbr -e 500 -c 0 -i 29 -a 0 -x {1.0 2.0 26 ------- null}
h -t 0.632 -s 1 -d 2 -p cbr -e 500 -c 0 -i 29 -a 0 -x {1.0 2.0 -1 ------- null}
r -t 0.634 -s 1 -d 2 -p cbr -e 500 -c 0 -i 26 -a 0 -x {1.0 2.0 23 ------- null}
+ -t 0.635 -s 1 -d 2 -p cbr -e 500 -c 0 -i 30 -a 0 -x {1.0 2.0 27 ------- null}
- -t 0.636 -s 1 -d 2 -p cbr -e 500 -c 0 -i 30 -a 0 -x {1.0 2.0 27 ------- null}
h -t 0.636 -s 1 -d 2 -p cbr -e 500 -c 0 -i 30 -a 0 -x {1.0 2.0 -1 ------- null}
r -t 0.638 -s 1 -d 2 -p cbr -e 500 -c 0 -i 27 -a 0 -x {1.0 2.0 24 ------- null}
r -t 0.64 -s 2 -d 3 -p tcp -e 1000 -c 1 -i 20 -a 1 -x {0.0 3.0 1 ------- null}
+ -t 0.64 -s 3 -d 2 -p ack -e 40 -c 1 -i 31 -a 1 -x {3.0 0.0 1 ------- null}
- -t 0.64 -s 3 -d 2 -p ack -e 40 -c 1 -i 31 -a 1 -x {3.0 0.0 1 ------- null}
h -t 0.64 -s 3 -d 2 -p ack -e 40 -c 1 -i 31 -a 1 -x {3.0 0.0 -1 ------- null}
+ -t 0.64 -s 1 -d 2 -p cbr -e 500 -c 0 -i 32 -a 0 -x {1.0 2.0 28 ------- null}
- -t 0.64 -s 1 -d 2 -p cbr -e 500 -c 0 -i 32 -a 0 -x {1.0 2.0 28 ------- null}
h -t 0.64 -s 1 -d 2 -p cbr -e 500 -c 0 -i 32 -a 0 -x {1.0 2.0 -1 ------- null}
r -t 0.642 -s 1 -d 2 -p cbr -e 500 -c 0 -i 28 -a 0 -x {1.0 2.0 25 ------- null}
+ -t 0.645 -s 1 -d 2 -p cbr -e 500 -c 0 -i 33 -a 0 -x {1.0 2.0 29 ------- null}
- -t 0.645 -s 1 -d 2 -p cbr -e 500 -c 0 -i 33 -a 0 -x {1.0 2.0 29 ------- null}
h -t 0.645 -s 1 -d 2 -p cbr -e 500 -c 0 -i 33 -a 0 -x {1.0 2.0 -1 ------- null}
r -t 0.646 -s 1 -d 2 -p cbr -e 500 -c 0 -i 29 -a 0 -x {1.0 2.0 26 ------- null}
r -t 0.65 -s 1 -d 2 -p cbr -e 500 -c 0 -i 30 -a 0 -x {1.0 2.0 27 ------- null}
+ -t 0.65 -s 1 -d 2 -p cbr -e 500 -c 0 -i 34 -a 0 -x {1.0 2.0 30 ------- null}
- -t 0.65 -s 1 -d 2 -p cbr -e 500 -c 0 -i 34 -a 0 -x {1.0 2.0 30 ------- null}
h -t 0.65 -s 1 -d 2 -p cbr -e 500 -c 0 -i 34 -a 0 -x {1.0 2.0 -1 ------- null}
r -t 0.65032 -s 3 -d 2 -p ack -e 40 -c 1 -i 31 -a 1 -x {3.0 0.0 1 ------- null}
+ -t 0.65032 -s 2 -d 1 -p ack -e 40 -c 1 -i 31 -a 1 -x {3.0 0.0 1 ------- null}
- -t 0.65032 -s 2 -d 1 -p ack -e 40 -c 1 -i 31 -a 1 -x {3.0 0.0 1 ------- null}
h -t 0.65032 -s 2 -d 1 -p ack -e 40 -c 1 -i 31 -a 1 -x {3.0 0.0 -1 ------- null}
r -t 0.654 -s 1 -d 2 -p cbr -e 500 -c 0 -i 32 -a 0 -x {1.0 2.0 28 ------- null}
+ -t 0.655 -s 1 -d 2 -p cbr -e 500 -c 0 -i 35 -a 0 -x {1.0 2.0 31 ------- null}
- -t 0.655 -s 1 -d 2 -p cbr -e 500 -c 0 -i 35 -a 0 -x {1.0 2.0 31 ------- null}
h -t 0.655 -s 1 -d 2 -p cbr -e 500 -c 0 -i 35 -a 0 -x {1.0 2.0 -1 ------- null}
r -t 0.659 -s 1 -d 2 -p cbr -e 500 -c 0 -i 33 -a 0 -x {1.0 2.0 29 ------- null}
+ -t 0.66 -s 1 -d 2 -p cbr -e 500 -c 0 -i 36 -a 0 -x {1.0 2.0 32 ------- null}
- -t 0.66 -s 1 -d 2 -p cbr -e 500 -c 0 -i 36 -a 0 -x {1.0 2.0 32 ------- null}
h -t 0.66 -s 1 -d 2 -p cbr -e 500 -c 0 -i 36 -a 0 -x {1.0 2.0 -1 ------- null}
r -t 0.66064 -s 2 -d 1 -p ack -e 40 -c 1 -i 31 -a 1 -x {3.0 0.0 1 ------- null}
+ -t 0.66064 -s 1 -d 0 -p ack -e 40 -c 1 -i 31 -a 1 -x {3.0 0.0 1 ------- null}
- -t 0.66064 -s 1 -d 0 -p ack -e 40 -c 1 -i 31 -a 1 -x {3.0 0.0 1 ------- null}
h -t 0.66064 -s 1 -d 0 -p ack -e 40 -c 1 -i 31 -a 1 -x {3.0 0.0 -1 ------- null}
r -t 0.664 -s 1 -d 2 -p cbr -e 500 -c 0 -i 34 -a 0 -x {1.0 2.0 30 ------- null}
+ -t 0.665 -s 1 -d 2 -p cbr -e 500 -c 0 -i 37 -a 0 -x {1.0 2.0 33 ------- null}
- -t 0.665 -s 1 -d 2 -p cbr -e 500 -c 0 -i 37 -a 0 -x {1.0 2.0 33 ------- null}
h -t 0.665 -s 1 -d 2 -p cbr -e 500 -c 0 -i 37 -a 0 -x {1.0 2.0 -1 ------- null}
r -t 0.669 -s 1 -d 2 -p cbr -e 500 -c 0 -i 35 -a 0 -x {1.0 2.0 31 ------- null}
+ -t 0.67 -s 1 -d 2 -p cbr -e 500 -c 0 -i 38 -a 0 -x {1.0 2.0 34 ------- null}
- -t 0.67 -s 1 -d 2 -p cbr -e 500 -c 0 -i 38 -a 0 -x {1.0 2.0 34 ------- null}
h -t 0.67 -s 1 -d 2 -p cbr -e 500 -c 0 -i 38 -a 0 -x {1.0 2.0 -1 ------- null}
r -t 0.67096 -s 1 -d 0 -p ack -e 40 -c 1 -i 31 -a 1 -x {3.0 0.0 1 ------- null}
+ -t 0.67096 -s 0 -d 1 -p tcp -e 1000 -c 1 -i 39 -a 1 -x {0.0 3.0 2 ------- null}
- -t 0.67096 -s 0 -d 1 -p tcp -e 1000 -c 1 -i 39 -a 1 -x {0.0 3.0 2 ------- null}
h -t 0.67096 -s 0 -d 1 -p tcp -e 1000 -c 1 -i 39 -a 1 -x {0.0 3.0 -1 ------- null}
+ -t 0.67096 -s 0 -d 1 -p tcp -e 1000 -c 1 -i 40 -a 1 -x {0.0 3.0 3 ------- null}
+ -t 0.67096 -s 0 -d 1 -p tcp -e 1000 -c 1 -i 41 -a 1 -x {0.0 3.0 4 ------- null}
r -t 0.674 -s 1 -d 2 -p cbr -e 500 -c 0 -i 36 -a 0 -x {1.0 2.0 32 ------- null}
+ -t 0.675 -s 1 -d 2 -p cbr -e 500 -c 0 -i 42 -a 0 -x {1.0 2.0 35 ------- null}
- -t 0.675 -s 1 -d 2 -p cbr -e 500 -c 0 -i 42 -a 0 -x {1.0 2.0 35 ------- null}
h -t 0.675 -s 1 -d 2 -p cbr -e 500 -c 0 -i 42 -a 0 -x {1.0 2.0 -1 ------- null}
- -t 0.67896 -s 0 -d 1 -p tcp -e 1000 -c 1 -i 40 -a 1 -x {0.0 3.0 3 ------- null}
h -t 0.67896 -s 0 -d 1 -p tcp -e 1000 -c 1 -i 40 -a 1 -x {0.0 3.0 -1 ------- null}
r -t 0.679 -s 1 -d 2 -p cbr -e 500 -c 0 -i 37 -a 0 -x {1.0 2.0 33 ------- null}
+ -t 0.68 -s 1 -d 2 -p cbr -e 500 -c 0 -i 43 -a 0 -x {1.0 2.0 36 ------- null}
- -t 0.68 -s 1 -d 2 -p cbr -e 500 -c 0 -i 43 -a 0 -x {1.0 2.0 36 ------- null}
h -t 0.68 -s 1 -d 2 -p cbr -e 500 -c 0 -i 43 -a 0 -x {1.0 2.0 -1 ------- null}
r -t 0.684 -s 1 -d 2 -p cbr -e 500 -c 0 -i 38 -a 0 -x {1.0 2.0 34 ------- null}
+ -t 0.685 -s 1 -d 2 -p cbr -e 500 -c 0 -i 44 -a 0 -x {1.0 2.0 37 ------- null}
- -t 0.685 -s 1 -d 2 -p cbr -e 500 -c 0 -i 44 -a 0 -x {1.0 2.0 37 ------- null}
h -t 0.685 -s 1 -d 2 -p cbr -e 500 -c 0 -i 44 -a 0 -x {1.0 2.0 -1 ------- null}
- -t 0.68696 -s 0 -d 1 -p tcp -e 1000 -c 1 -i 41 -a 1 -x {0.0 3.0 4 ------- null}
h -t 0.68696 -s 0 -d 1 -p tcp -e 1000 -c 1 -i 41 -a 1 -x {0.0 3.0 -1 ------- null}
r -t 0.68896 -s 0 -d 1 -p tcp -e 1000 -c 1 -i 39 -a 1 -x {0.0 3.0 2 ------- null}
+ -t 0.68896 -s 1 -d 2 -p tcp -e 1000 -c 1 -i 39 -a 1 -x {0.0 3.0 2 ------- null}
r -t 0.689 -s 1 -d 2 -p cbr -e 500 -c 0 -i 42 -a 0 -x {1.0 2.0 35 ------- null}
- -t 0.689 -s 1 -d 2 -p tcp -e 1000 -c 1 -i 39 -a 1 -x {0.0 3.0 2 ------- null}
h -t 0.689 -s 1 -d 2 -p tcp -e 1000 -c 1 -i 39 -a 1 -x {0.0 3.0 -1 ------- null}
+ -t 0.69 -s 1 -d 2 -p cbr -e 500 -c 0 -i 45 -a 0 -x {1.0 2.0 38 ------- null}
r -t 0.694 -s 1 -d 2 -p cbr -e 500 -c 0 -i 43 -a 0 -x {1.0 2.0 36 ------- null}
+ -t 0.695 -s 1 -d 2 -p cbr -e 500 -c 0 -i 46 -a 0 -x {1.0 2.0 39 ------- null}
r -t 0.69696 -s 0 -d 1 -p tcp -e 1000 -c 1 -i 40 -a 1 -x {0.0 3.0 3 ------- null}
+ -t 0.69696 -s 1 -d 2 -p tcp -e 1000 -c 1 -i 40 -a 1 -x {0.0 3.0 3 ------- null}
- -t 0.697 -s 1 -d 2 -p cbr -e 500 -c 0 -i 45 -a 0 -x {1.0 2.0 38 ------- null}
h -t 0.697 -s 1 -d 2 -p cbr -e 500 -c 0 -i 45 -a 0 -x {1.0 2.0 -1 ------- null}
r -t 0.699 -s 1 -d 2 -p cbr -e 500 -c 0 -i 44 -a 0 -x {1.0 2.0 37 ------- null}
+ -t 0.7 -s 1 -d 2 -p cbr -e 500 -c 0 -i 47 -a 0 -x {1.0 2.0 40 ------- null}
- -t 0.701 -s 1 -d 2 -p cbr -e 500 -c 0 -i 46 -a 0 -x {1.0 2.0 39 ------- null}
h -t 0.701 -s 1 -d 2 -p cbr -e 500 -c 0 -i 46 -a 0 -x {1.0 2.0 -1 ------- null}
r -t 0.70496 -s 0 -d 1 -p tcp -e 1000 -c 1 -i 41 -a 1 -x {0.0 3.0 4 ------- null}
+ -t 0.70496 -s 1 -d 2 -p tcp -e 1000 -c 1 -i 41 -a 1 -x {0.0 3.0 4 ------- null}
+ -t 0.705 -s 1 -d 2 -p cbr -e 500 -c 0 -i 48 -a 0 -x {1.0 2.0 41 ------- null}
- -t 0.705 -s 1 -d 2 -p tcp -e 1000 -c 1 -i 40 -a 1 -x {0.0 3.0 3 ------- null}
h -t 0.705 -s 1 -d 2 -p tcp -e 1000 -c 1 -i 40 -a 1 -x {0.0 3.0 -1 ------- null}
r -t 0.707 -s 1 -d 2 -p tcp -e 1000 -c 1 -i 39 -a 1 -x {0.0 3.0 2 ------- null}
+ -t 0.707 -s 2 -d 3 -p tcp -e 1000 -c 1 -i 39 -a 1 -x {0.0 3.0 2 ------- null}
- -t 0.707 -s 2 -d 3 -p tcp -e 1000 -c 1 -i 39 -a 1 -x {0.0 3.0 2 ------- null}
h -t 0.707 -s 2 -d 3 -p tcp -e 1000 -c 1 -i 39 -a 1 -x {0.0 3.0 -1 ------- null}
+ -t 0.71 -s 1 -d 2 -p cbr -e 500 -c 0 -i 49 -a 0 -x {1.0 2.0 42 ------- null}
r -t 0.711 -s 1 -d 2 -p cbr -e 500 -c 0 -i 45 -a 0 -x {1.0 2.0 38 ------- null}
- -t 0.713 -s 1 -d 2 -p cbr -e 500 -c 0 -i 47 -a 0 -x {1.0 2.0 40 ------- null}
h -t 0.713 -s 1 -d 2 -p cbr -e 500 -c 0 -i 47 -a 0 -x {1.0 2.0 -1 ------- null}
r -t 0.715 -s 1 -d 2 -p cbr -e 500 -c 0 -i 46 -a 0 -x {1.0 2.0 39 ------- null}
+ -t 0.715 -s 1 -d 2 -p cbr -e 500 -c 0 -i 50 -a 0 -x {1.0 2.0 43 ------- null}
- -t 0.717 -s 1 -d 2 -p tcp -e 1000 -c 1 -i 41 -a 1 -x {0.0 3.0 4 ------- null}
h -t 0.717 -s 1 -d 2 -p tcp -e 1000 -c 1 -i 41 -a 1 -x {0.0 3.0 -1 ------- null}
+ -t 0.72 -s 1 -d 2 -p cbr -e 500 -c 0 -i 51 -a 0 -x {1.0 2.0 44 ------- null}
r -t 0.723 -s 1 -d 2 -p tcp -e 1000 -c 1 -i 40 -a 1 -x {0.0 3.0 3 ------- null}
+ -t 0.723 -s 2 -d 3 -p tcp -e 1000 -c 1 -i 40 -a 1 -x {0.0 3.0 3 ------- null}
- -t 0.723 -s 2 -d 3 -p tcp -e 1000 -c 1 -i 40 -a 1 -x {0.0 3.0 3 ------- null}
h -t 0.723 -s 2 -d 3 -p tcp -e 1000 -c 1 -i 40 -a 1 -x {0.0 3.0 -1 ------- null}
r -t 0.725 -s 2 -d 3 -p tcp -e 1000 -c 1 -i 39 -a 1 -x {0.0 3.0 2 ------- null}
+ -t 0.725 -s 3 -d 2 -p ack -e 40 -c 1 -i 52 -a 1 -x {3.0 0.0 2 ------- null}
- -t 0.725 -s 3 -d 2 -p ack -e 40 -c 1 -i 52 -a 1 -x {3.0 0.0 2 ------- null}
h -t 0.725 -s 3 -d 2 -p ack -e 40 -c 1 -i 52 -a 1 -x {3.0 0.0 -1 ------- null}
- -t 0.725 -s 1 -d 2 -p cbr -e 500 -c 0 -i 48 -a 0 -x {1.0 2.0 41 ------- null}
h -t 0.725 -s 1 -d 2 -p cbr -e 500 -c 0 -i 48 -a 0 -x {1.0 2.0 -1 ------- null}
+ -t 0.725 -s 1 -d 2 -p cbr -e 500 -c 0 -i 53 -a 0 -x {1.0 2.0 45 ------- null}
r -t 0.727 -s 1 -d 2 -p cbr -e 500 -c 0 -i 47 -a 0 -x {1.0 2.0 40 ------- null}
- -t 0.729 -s 1 -d 2 -p cbr -e 500 -c 0 -i 49 -a 0 -x {1.0 2.0 42 ------- null}
h -t 0.729 -s 1 -d 2 -p cbr -e 500 -c 0 -i 49 -a 0 -x {1.0 2.0 -1 ------- null}
+ -t 0.73 -s 1 -d 2 -p cbr -e 500 -c 0 -i 54 -a 0 -x {1.0 2.0 46 ------- null}
- -t 0.733 -s 1 -d 2 -p cbr -e 500 -c 0 -i 50 -a 0 -x {1.0 2.0 43 ------- null}
h -t 0.733 -s 1 -d 2 -p cbr -e 500 -c 0 -i 50 -a 0 -x {1.0 2.0 -1 ------- null}
r -t 0.735 -s 1 -d 2 -p tcp -e 1000 -c 1 -i 41 -a 1 -x {0.0 3.0 4 ------- null}
+ -t 0.735 -s 2 -d 3 -p tcp -e 1000 -c 1 -i 41 -a 1 -x {0.0 3.0 4 ------- null}
- -t 0.735 -s 2 -d 3 -p tcp -e 1000 -c 1 -i 41 -a 1 -x {0.0 3.0 4 ------- null}
h -t 0.735 -s 2 -d 3 -p tcp -e 1000 -c 1 -i 41 -a 1 -x {0.0 3.0 -1 ------- null}
+ -t 0.735 -s 1 -d 2 -p cbr -e 500 -c 0 -i 55 -a 0 -x {1.0 2.0 47 ------- null}
r -t 0.73532 -s 3 -d 2 -p ack -e 40 -c 1 -i 52 -a 1 -x {3.0 0.0 2 ------- null}
+ -t 0.73532 -s 2 -d 1 -p ack -e 40 -c 1 -i 52 -a 1 -x {3.0 0.0 2 ------- null}
- -t 0.73532 -s 2 -d 1 -p ack -e 40 -c 1 -i 52 -a 1 -x {3.0 0.0 2 ------- null}
h -t 0.73532 -s 2 -d 1 -p ack -e 40 -c 1 -i 52 -a 1 -x {3.0 0.0 -1 ------- null}
- -t 0.737 -s 1 -d 2 -p cbr -e 500 -c 0 -i 51 -a 0 -x {1.0 2.0 44 ------- null}
h -t 0.737 -s 1 -d 2 -p cbr -e 500 -c 0 -i 51 -a 0 -x {1.0 2.0 -1 ------- null}
r -t 0.739 -s 1 -d 2 -p cbr -e 500 -c 0 -i 48 -a 0 -x {1.0 2.0 41 ------- null}
+ -t 0.74 -s 1 -d 2 -p cbr -e 500 -c 0 -i 56 -a 0 -x {1.0 2.0 48 ------- null}
r -t 0.741 -s 2 -d 3 -p tcp -e 1000 -c 1 -i 40 -a 1 -x {0.0 3.0 3 ------- null}
+ -t 0.741 -s 3 -d 2 -p ack -e 40 -c 1 -i 57 -a 1 -x {3.0 0.0 3 ------- null}
- -t 0.741 -s 3 -d 2 -p ack -e 40 -c 1 -i 57 -a 1 -x {3.0 0.0 3 ------- null}
h -t 0.741 -s 3 -d 2 -p ack -e 40 -c 1 -i 57 -a 1 -x {3.0 0.0 -1 ------- null}
- -t 0.741 -s 1 -d 2 -p cbr -e 500 -c 0 -i 53 -a 0 -x {1.0 2.0 45 ------- null}
h -t 0.741 -s 1 -d 2 -p cbr -e 500 -c 0 -i 53 -a 0 -x {1.0 2.0 -1 ------- null}
r -t 0.743 -s 1 -d 2 -p cbr -e 500 -c 0 -i 49 -a 0 -x {1.0 2.0 42 ------- null}
+ -t 0.745 -s 1 -d 2 -p cbr -e 500 -c 0 -i 58 -a 0 -x {1.0 2.0 49 ------- null}
- -t 0.745 -s 1 -d 2 -p cbr -e 500 -c 0 -i 54 -a 0 -x {1.0 2.0 46 ------- null}
h -t 0.745 -s 1 -d 2 -p cbr -e 500 -c 0 -i 54 -a 0 -x {1.0 2.0 -1 ------- null}
r -t 0.74564 -s 2 -d 1 -p ack -e 40 -c 1 -i 52 -a 1 -x {3.0 0.0 2 ------- null}
+ -t 0.74564 -s 1 -d 0 -p ack -e 40 -c 1 -i 52 -a 1 -x {3.0 0.0 2 ------- null}
- -t 0.74564 -s 1 -d 0 -p ack -e 40 -c 1 -i 52 -a 1 -x {3.0 0.0 2 ------- null}
h -t 0.74564 -s 1 -d 0 -p ack -e 40 -c 1 -i 52 -a 1 -x {3.0 0.0 -1 ------- null}
r -t 0.747 -s 1 -d 2 -p cbr -e 500 -c 0 -i 50 -a 0 -x {1.0 2.0 43 ------- null}
- -t 0.749 -s 1 -d 2 -p cbr -e 500 -c 0 -i 55 -a 0 -x {1.0 2.0 47 ------- null}
h -t 0.749 -s 1 -d 2 -p cbr -e 500 -c 0 -i 55 -a 0 -x {1.0 2.0 -1 ------- null}
+ -t 0.75 -s 1 -d 2 -p cbr -e 500 -c 0 -i 59 -a 0 -x {1.0 2.0 50 ------- null}
r -t 0.751 -s 1 -d 2 -p cbr -e 500 -c 0 -i 51 -a 0 -x {1.0 2.0 44 ------- null}
r -t 0.75132 -s 3 -d 2 -p ack -e 40 -c 1 -i 57 -a 1 -x {3.0 0.0 3 ------- null}
+ -t 0.75132 -s 2 -d 1 -p ack -e 40 -c 1 -i 57 -a 1 -x {3.0 0.0 3 ------- null}
- -t 0.75132 -s 2 -d 1 -p ack -e 40 -c 1 -i 57 -a 1 -x {3.0 0.0 3 ------- null}
h -t 0.75132 -s 2 -d 1 -p ack -e 40 -c 1 -i 57 -a 1 -x {3.0 0.0 -1 ------- null}
r -t 0.753 -s 2 -d 3 -p tcp -e 1000 -c 1 -i 41 -a 1 -x {0.0 3.0 4 ------- null}
+ -t 0.753 -s 3 -d 2 -p ack -e 40 -c 1 -i 60 -a 1 -x {3.0 0.0 4 ------- null}
- -t 0.753 -s 3 -d 2 -p ack -e 40 -c 1 -i 60 -a 1 -x {3.0 0.0 4 ------- null}
h -t 0.753 -s 3 -d 2 -p ack -e 40 -c 1 -i 60 -a 1 -x {3.0 0.0 -1 ------- null}
- -t 0.753 -s 1 -d 2 -p cbr -e 500 -c 0 -i 56 -a 0 -x {1.0 2.0 48 ------- null}
h -t 0.753 -s 1 -d 2 -p cbr -e 500 -c 0 -i 56 -a 0 -x {1.0 2.0 -1 ------- null}
r -t 0.755 -s 1 -d 2 -p cbr -e 500 -c 0 -i 53 -a 0 -x {1.0 2.0 45 ------- null}
+ -t 0.755 -s 1 -d 2 -p cbr -e 500 -c 0 -i 61 -a 0 -x {1.0 2.0 51 ------- null}
r -t 0.75596 -s 1 -d 0 -p ack -e 40 -c 1 -i 52 -a 1 -x {3.0 0.0 2 ------- null}
+ -t 0.75596 -s 0 -d 1 -p tcp -e 1000 -c 1 -i 62 -a 1 -x {0.0 3.0 5 ------- null}
- -t 0.75596 -s 0 -d 1 -p tcp -e 1000 -c 1 -i 62 -a 1 -x {0.0 3.0 5 ------- null}
h -t 0.75596 -s 0 -d 1 -p tcp -e 1000 -c 1 -i 62 -a 1 -x {0.0 3.0 -1 ------- null}
- -t 0.757 -s 1 -d 2 -p cbr -e 500 -c 0 -i 58 -a 0 -x {1.0 2.0 49 ------- null}
h -t 0.757 -s 1 -d 2 -p cbr -e 500 -c 0 -i 58 -a 0 -x {1.0 2.0 -1 ------- null}
r -t 0.759 -s 1 -d 2 -p cbr -e 500 -c 0 -i 54 -a 0 -x {1.0 2.0 46 ------- null}
+ -t 0.76 -s 1 -d 2 -p cbr -e 500 -c 0 -i 63 -a 0 -x {1.0 2.0 52 ------- null}
- -t 0.761 -s 1 -d 2 -p cbr -e 500 -c 0 -i 59 -a 0 -x {1.0 2.0 50 ------- null}
h -t 0.761 -s 1 -d 2 -p cbr -e 500 -c 0 -i 59 -a 0 -x {1.0 2.0 -1 ------- null}
r -t 0.76164 -s 2 -d 1 -p ack -e 40 -c 1 -i 57 -a 1 -x {3.0 0.0 3 ------- null}
+ -t 0.76164 -s 1 -d 0 -p ack -e 40 -c 1 -i 57 -a 1 -x {3.0 0.0 3 ------- null}
- -t 0.76164 -s 1 -d 0 -p ack -e 40 -c 1 -i 57 -a 1 -x {3.0 0.0 3 ------- null}
h -t 0.76164 -s 1 -d 0 -p ack -e 40 -c 1 -i 57 -a 1 -x {3.0 0.0 -1 ------- null}
r -t 0.763 -s 1 -d 2 -p cbr -e 500 -c 0 -i 55 -a 0 -x {1.0 2.0 47 ------- null}
r -t 0.76332 -s 3 -d 2 -p ack -e 40 -c 1 -i 60 -a 1 -x {3.0 0.0 4 ------- null}
+ -t 0.76332 -s 2 -d 1 -p ack -e 40 -c 1 -i 60 -a 1 -x {3.0 0.0 4 ------- null}
- -t 0.76332 -s 2 -d 1 -p ack -e 40 -c 1 -i 60 -a 1 -x {3.0 0.0 4 ------- null}
h -t 0.76332 -s 2 -d 1 -p ack -e 40 -c 1 -i 60 -a 1 -x {3.0 0.0 -1 ------- null}
+ -t 0.765 -s 1 -d 2 -p cbr -e 500 -c 0 -i 64 -a 0 -x {1.0 2.0 53 ------- null}
- -t 0.765 -s 1 -d 2 -p cbr -e 500 -c 0 -i 61 -a 0 -x {1.0 2.0 51 ------- null}
h -t 0.765 -s 1 -d 2 -p cbr -e 500 -c 0 -i 61 -a 0 -x {1.0 2.0 -1 ------- null}
r -t 0.767 -s 1 -d 2 -p cbr -e 500 -c 0 -i 56 -a 0 -x {1.0 2.0 48 ------- null}
- -t 0.769 -s 1 -d 2 -p cbr -e 500 -c 0 -i 63 -a 0 -x {1.0 2.0 52 ------- null}
h -t 0.769 -s 1 -d 2 -p cbr -e 500 -c 0 -i 63 -a 0 -x {1.0 2.0 -1 ------- null}
+ -t 0.77 -s 1 -d 2 -p cbr -e 500 -c 0 -i 65 -a 0 -x {1.0 2.0 54 ------- null}
r -t 0.771 -s 1 -d 2 -p cbr -e 500 -c 0 -i 58 -a 0 -x {1.0 2.0 49 ------- null}
r -t 0.77196 -s 1 -d 0 -p ack -e 40 -c 1 -i 57 -a 1 -x {3.0 0.0 3 ------- null}
+ -t 0.77196 -s 0 -d 1 -p tcp -e 1000 -c 1 -i 66 -a 1 -x {0.0 3.0 6 ------- null}
- -t 0.77196 -s 0 -d 1 -p tcp -e 1000 -c 1 -i 66 -a 1 -x {0.0 3.0 6 ------- null}
h -t 0.77196 -s 0 -d 1 -p tcp -e 1000 -c 1 -i 66 -a 1 -x {0.0 3.0 -1 ------- null}
- -t 0.773 -s 1 -d 2 -p cbr -e 500 -c 0 -i 64 -a 0 -x {1.0 2.0 53 ------- null}
h -t 0.773 -s 1 -d 2 -p cbr -e 500 -c 0 -i 64 -a 0 -x {1.0 2.0 -1 ------- null}
r -t 0.77364 -s 2 -d 1 -p ack -e 40 -c 1 -i 60 -a 1 -x {3.0 0.0 4 ------- null}
+ -t 0.77364 -s 1 -d 0 -p ack -e 40 -c 1 -i 60 -a 1 -x {3.0 0.0 4 ------- null}
- -t 0.77364 -s 1 -d 0 -p ack -e 40 -c 1 -i 60 -a 1 -x {3.0 0.0 4 ------- null}
h -t 0.77364 -s 1 -d 0 -p ack -e 40 -c 1 -i 60 -a 1 -x {3.0 0.0 -1 ------- null}
r -t 0.77396 -s 0 -d 1 -p tcp -e 1000 -c 1 -i 62 -a 1 -x {0.0 3.0 5 ------- null}
+ -t 0.77396 -s 1 -d 2 -p tcp -e 1000 -c 1 -i 62 -a 1 -x {0.0 3.0 5 ------- null}
r -t 0.775 -s 1 -d 2 -p cbr -e 500 -c 0 -i 59 -a 0 -x {1.0 2.0 50 ------- null}
+ -t 0.775 -s 1 -d 2 -p cbr -e 500 -c 0 -i 67 -a 0 -x {1.0 2.0 55 ------- null}
- -t 0.777 -s 1 -d 2 -p cbr -e 500 -c 0 -i 65 -a 0 -x {1.0 2.0 54 ------- null}
h -t 0.777 -s 1 -d 2 -p cbr -e 500 -c 0 -i 65 -a 0 -x {1.0 2.0 -1 ------- null}
r -t 0.779 -s 1 -d 2 -p cbr -e 500 -c 0 -i 61 -a 0 -x {1.0 2.0 51 ------- null}
+ -t 0.78 -s 1 -d 2 -p cbr -e 500 -c 0 -i 68 -a 0 -x {1.0 2.0 56 ------- null}
- -t 0.781 -s 1 -d 2 -p tcp -e 1000 -c 1 -i 62 -a 1 -x {0.0 3.0 5 ------- null}
h -t 0.781 -s 1 -d 2 -p tcp -e 1000 -c 1 -i 62 -a 1 -x {0.0 3.0 -1 ------- null}
r -t 0.783 -s 1 -d 2 -p cbr -e 500 -c 0 -i 63 -a 0 -x {1.0 2.0 52 ------- null}
r -t 0.78396 -s 1 -d 0 -p ack -e 40 -c 1 -i 60 -a 1 -x {3.0 0.0 4 ------- null}
+ -t 0.78396 -s 0 -d 1 -p tcp -e 1000 -c 1 -i 69 -a 1 -x {0.0 3.0 7 ------- null}
- -t 0.78396 -s 0 -d 1 -p tcp -e 1000 -c 1 -i 69 -a 1 -x {0.0 3.0 7 ------- null}
h -t 0.78396 -s 0 -d 1 -p tcp -e 1000 -c 1 -i 69 -a 1 -x {0.0 3.0 -1 ------- null}
+ -t 0.785 -s 1 -d 2 -p cbr -e 500 -c 0 -i 70 -a 0 -x {1.0 2.0 57 ------- null}
r -t 0.787 -s 1 -d 2 -p cbr -e 500 -c 0 -i 64 -a 0 -x {1.0 2.0 53 ------- null}
- -t 0.789 -s 1 -d 2 -p cbr -e 500 -c 0 -i 67 -a 0 -x {1.0 2.0 55 ------- null}
h -t 0.789 -s 1 -d 2 -p cbr -e 500 -c 0 -i 67 -a 0 -x {1.0 2.0 -1 ------- null}
r -t 0.78996 -s 0 -d 1 -p tcp -e 1000 -c 1 -i 66 -a 1 -x {0.0 3.0 6 ------- null}
+ -t 0.78996 -s 1 -d 2 -p tcp -e 1000 -c 1 -i 66 -a 1 -x {0.0 3.0 6 ------- null}
+ -t 0.79 -s 1 -d 2 -p cbr -e 500 -c 0 -i 71 -a 0 -x {1.0 2.0 58 ------- null}
r -t 0.791 -s 1 -d 2 -p cbr -e 500 -c 0 -i 65 -a 0 -x {1.0 2.0 54 ------- null}
- -t 0.793 -s 1 -d 2 -p cbr -e 500 -c 0 -i 68 -a 0 -x {1.0 2.0 56 ------- null}
h -t 0.793 -s 1 -d 2 -p cbr -e 500 -c 0 -i 68 -a 0 -x {1.0 2.0 -1 ------- null}
+ -t 0.795 -s 1 -d 2 -p cbr -e 500 -c 0 -i 72 -a 0 -x {1.0 2.0 59 ------- null}
- -t 0.797 -s 1 -d 2 -p cbr -e 500 -c 0 -i 70 -a 0 -x {1.0 2.0 57 ------- null}
h -t 0.797 -s 1 -d 2 -p cbr -e 500 -c 0 -i 70 -a 0 -x {1.0 2.0 -1 ------- null}
r -t 0.799 -s 1 -d 2 -p tcp -e 1000 -c 1 -i 62 -a 1 -x {0.0 3.0 5 ------- null}