+ 0.5 1 2 cbr 210 ------- 3 1.0 2.0 0 0
- 0.5 1 2 cbr 210 ------- 3 1.0 2.0 0 0
+ 0.5 0 1 tcp 1000 ------- 1 0.0 3.0 0 1
- 0.5 0 1 tcp 1000 ------- 1 0.0 3.0 0 1
+ 0.500168 1 2 cbr 210 ------- 3 1.0 2.0 1 2
- 0.500168 1 2 cbr 210 ------- 3 1.0 2.0 1 2
+ 0.500336 1 2 cbr 210 ------- 3 1.0 2.0 2 3
- 0.500336 1 2 cbr 210 ------- 3 1.0 2.0 2 3
+ 0.500504 1 2 cbr 210 ------- 3 1.0 2.0 3 4
- 0.500504 1 2 cbr 210 ------- 3 1.0 2.0 3 4
+ 0.500672 1 2 cbr 210 ------- 3 1.0 2.0 4 5
- 0.500672 1 2 cbr 210 ------- 3 1.0 2.0 4 5
+ 0.50084 1 2 cbr 210 ------- 3 1.0 2.0 5 6
- 0.50084 1 2 cbr 210 ------- 3 1.0 2.0 5 6
+ 0.501008 1 2 cbr 210 ------- 3 1.0 2.0 6 7
- 0.501008 1 2 cbr 210 ------- 3 1.0 2.0 6 7
+ 0.501176 1 2 cbr 210 ------- 3 1.0 2.0 7 8
- 0.501176 1 2 cbr 210 ------- 3 1.0 2.0 7 8
+ 0.501344 1 2 cbr 210 ------- 3 1.0 2.0 8 9
- 0.501344 1 2 cbr 210 ------- 3 1.0 2.0 8 9
+ 0.501512 1 2 cbr 210 ------- 3 1.0 2.0 9 10
- 0.501512 1 2 cbr 210 ------- 3 1.0 2.0 9 10
+ 0.50168 1 2 cbr 210 ------- 3 1.0 2.0 10 11
- 0.50168 1 2 cbr 210 ------- 3 1.0 2.0 10 11
+ 0.501848 1 2 cbr 210 ------- 3 1.0 2.0 11 12
- 0.501848 1 2 cbr 210 ------- 3 1.0 2.0 11 12
+ 0.502016 1 2 cbr 210 ------- 3 1.0 2.0 12 13
- 0.502016 1 2 cbr 210 ------- 3 1.0 2.0 12 13
+ 0.502184 1 2 cbr 210 ------- 3 1.0 2.0 13 14
- 0.502184 1 2 cbr 210 ------- 3 1.0 2.0 13 14
+ 0.502352 1 2 cbr 210 ------- 3 1.0 2.0 14 15
- 0.502352 1 2 cbr 210 ------- 3 1.0 2.0 14 15
+ 0.50252 1 2 cbr 210 ------- 3 1.0 2.0 15 16
- 0.50252 1 2 cbr 210 ------- 3 1.0 2.0 15 16
+ 0.502688 1 2 cbr 210 ------- 3 1.0 2.0 16 17
- 0.502688 1 2 cbr 210 ------- 3 1.0 2.0 16 17
+ 0.502856 1 2 cbr 210 ------- 3 1.0 2.0 17 18
- 0.502856 1 2 cbr 210 ------- 3 1.0 2.0 17 18
+ 0.503024 1 2 cbr 210 ------- 3 1.0 2.0 18 19
- 0.503024 1 2 cbr 210 ------- 3 1.0 2.0 18 19
+ 0.503192 1 2 cbr 210 ------- 3 1.0 2.0 19 20
- 0.503192 1 2 cbr 210 ------- 3 1.0 2.0 19 20
+ 0.50336 1 2 cbr 210 ------- 3 1.0 2.0 20 21
- 0.50336 1 2 cbr 210 ------- 3 1.0 2.0 20 21
+ 0.503528 1 2 cbr 210 ------- 3 1.0 2.0 21 22
- 0.503528 1 2 cbr 210 ------- 3 1.0 2.0 21 22
+ 0.503696 1 2 cbr 210 ------- 3 1.0 2.0 22 23
- 0.503696 1 2 cbr 210 ------- 3 1.0 2.0 22 23
+ 0.503864 1 2 cbr 210 ------- 3 1.0 2.0 23 24
- 0.503864 1 2 cbr 210 ------- 3 1.0 2.0 23 24
+ 0.504032 1 2 cbr 210 ------- 3 1.0 2.0 24 25
- 0.504032 1 2 cbr 210 ------- 3 1.0 2.0 24 25
+ 0.5042 1 2 cbr 210 ------- 3 1.0 2.0 25 26
- 0.5042 1 2 cbr 210 ------- 3 1.0 2.0 25 26
+ 0.504368 1 2 cbr 210 ------- 3 1.0 2.0 26 27
- 0.504368 1 2 cbr 210 ------- 3 1.0 2.0 26 27
+ 0.504536 1 2 cbr 210 ------- 3 1.0 2.0 27 28
- 0.504536 1 2 cbr 210 ------- 3 1.0 2.0 27 28
+ 0.504704 1 2 cbr 210 ------- 3 1.0 2.0 28 29
- 0.504704 1 2 cbr 210 ------- 3 1.0 2.0 28 29
+ 0.504872 1 2 cbr 210 ------- 3 1.0 2.0 29 30
- 0.504872 1 2 cbr 210 ------- 3 1.0 2.0 29 30
+ 0.50504 1 2 cbr 210 ------- 3 1.0 2.0 30 31
- 0.50504 1 2 cbr 210 ------- 3 1.0 2.0 30 31
+ 0.505208 1 2 cbr 210 ------- 3 1.0 2.0 31 32
- 0.505208 1 2 cbr 210 ------- 3 1.0 2.0 31 32
+ 0.505376 1 2 cbr 210 ------- 3 1.0 2.0 32 33
- 0.505376 1 2 cbr 210 ------- 3 1.0 2.0 32 33
+ 0.505544 1 2 cbr 210 ------- 3 1.0 2.0 33 34
- 0.505544 1 2 cbr 210 ------- 3 1.0 2.0 33 34
+ 0.505712 1 2 cbr 210 ------- 3 1.0 2.0 34 35
- 0.505712 1 2 cbr 210 ------- 3 1.0 2.0 34 35
+ 0.50588 1 2 cbr 210 ------- 3 1.0 2.0 35 36
- 0.50588 1 2 cbr 210 ------- 3 1.0 2.0 35 36
+ 0.506048 1 2 cbr 210 ------- 3 1.0 2.0 36 37
- 0.506048 1 2 cbr 210 ------- 3 1.0 2.0 36 37
+ 0.506216 1 2 cbr 210 ------- 3 1.0 2.0 37 38
- 0.506216 1 2 cbr 210 ------- 3 1.0 2.0 37 38
+ 0.506384 1 2 cbr 210 ------- 3 1.0 2.0 38 39
- 0.506384 1 2 cbr 210 ------- 3 1.0 2.0 38 39
+ 0.506552 1 2 cbr 210 ------- 3 1.0 2.0 39 40
- 0.506552 1 2 cbr 210 ------- 3 1.0 2.0 39 40
+ 0.50672 1 2 cbr 210 ------- 3 1.0 2.0 40 41
- 0.50672 1 2 cbr 210 ------- 3 1.0 2.0 40 41
+ 0.506888 1 2 cbr 210 ------- 3 1.0 2.0 41 42
- 0.506888 1 2 cbr 210 ------- 3 1.0 2.0 41 42
+ 0.507056 1 2 cbr 210 ------- 3 1.0 2.0 42 43
- 0.507056 1 2 cbr 210 ------- 3 1.0 2.0 42 43
+ 0.507224 1 2 cbr 210 ------- 3 1.0 2.0 43 44
- 0.507224 1 2 cbr 210 ------- 3 1.0 2.0 43 44
+ 0.507392 1 2 cbr 210 ------- 3 1.0 2.0 44 45
- 0.507392 1 2 cbr 210 ------- 3 1.0 2.0 44 45
+ 0.50756 1 2 cbr 210 ------- 3 1.0 2.0 45 46
- 0.50756 1 2 cbr 210 ------- 3 1.0 2.0 45 46
+ 0.507728 1 2 cbr 210 ------- 3 1.0 2.0 46 47
- 0.507728 1 2 cbr 210 ------- 3 1.0 2.0 46 47
+ 0.507896 1 2 cbr 210 ------- 3 1.0 2.0 47 48
- 0.507896 1 2 cbr 210 ------- 3 1.0 2.0 47 48
+ 0.508064 1 2 cbr 210 ------- 3 1.0 2.0 48 49
- 0.508064 1 2 cbr 210 ------- 3 1.0 2.0 48 49
+ 0.508232 1 2 cbr 210 ------- 3 1.0 2.0 49 50
- 0.508232 1 2 cbr 210 ------- 3 1.0 2.0 49 50
+ 0.5084 1 2 cbr 210 ------- 3 1.0 2.0 50 51
- 0.5084 1 2 cbr 210 ------- 3 1.0 2.0 50 51
+ 0.508568 1 2 cbr 210 ------- 3 1.0 2.0 51 52
- 0.508568 1 2 cbr 210 ------- 3 1.0 2.0 51 52
+ 0.508736 1 2 cbr 210 ------- 3 1.0 2.0 52 53
- 0.508736 1 2 cbr 210 ------- 3 1.0 2.0 52 53
+ 0.508904 1 2 cbr 210 ------- 3 1.0 2.0 53 54
- 0.508904 1 2 cbr 210 ------- 3 1.0 2.0 53 54
+ 0.509072 1 2 cbr 210 ------- 3 1.0 2.0 54 55
- 0.509072 1 2 cbr 210 ------- 3 1.0 2.0 54 55
+ 0.50924 1 2 cbr 210 ------- 3 1.0 2.0 55 56
- 0.50924 1 2 cbr 210 ------- 3 1.0 2.0 55 56
+ 0.509408 1 2 cbr 210 ------- 3 1.0 2.0 56 57
- 0.509408 1 2 cbr 210 ------- 3 1.0 2.0 56 57
+ 0.509576 1 2 cbr 210 ------- 3 1.0 2.0 57 58
- 0.509576 1 2 cbr 210 ------- 3 1.0 2.0 57 58
+ 0.509744 1 2 cbr 210 ------- 3 1.0 2.0 58 59
- 0.509744 1 2 cbr 210 ------- 3 1.0 2.0 58 59
+ 0.509912 1 2 cbr 210 ------- 3 1.0 2.0 59 60
- 0.509912 1 2 cbr 210 ------- 3 1.0 2.0 59 60
+ 0.51008 1 2 cbr 210 ------- 3 1.0 2.0 60 61
- 0.51008 1 2 cbr 210 ------- 3 1.0 2.0 60 61
r 0.510168 1 2 cbr 210 ------- 3 1.0 2.0 0 0
+ 0.510248 1 2 cbr 210 ------- 3 1.0 2.0 61 62
- 0.510248 1 2 cbr 210 ------- 3 1.0 2.0 61 62
r 0.510336 1 2 cbr 210 ------- 3 1.0 2.0 1 2
+ 0.510416 1 2 cbr 210 ------- 3 1.0 2.0 62 63
- 0.510416 1 2 cbr 210 ------- 3 1.0 2.0 62 63
r 0.510504 1 2 cbr 210 ------- 3 1.0 2.0 2 3
+ 0.510584 1 2 cbr 210 ------- 3 1.0 2.0 63 64
- 0.510584 1 2 cbr 210 ------- 3 1.0 2.0 63 64
r 0.510672 1 2 cbr 210 ------- 3 1.0 2.0 3 4
+ 0.510752 1 2 cbr 210 ------- 3 1.0 2.0 64 65
- 0.510752 1 2 cbr 210 ------- 3 1.0 2.0 64 65
r 0.5108 0 1 tcp 1000 ------- 1 0.0 3.0 0 1
+ 0.5108 1 2 tcp 1000 ------- 1 0.0 3.0 0 1
r 0.51084 1 2 cbr 210 ------- 3 1.0 2.0 4 5
- 0.51092 1 2 tcp 1000 ------- 1 0.0 3.0 0 1
+ 0.51092 1 2 cbr 210 ------- 3 1.0 2.0 65 66
r 0.511008 1 2 cbr 210 ------- 3 1.0 2.0 5 6
+ 0.511088 1 2 cbr 210 ------- 3 1.0 2.0 66 67
r 0.511176 1 2 cbr 210 ------- 3 1.0 2.0 6 7
+ 0.511256 1 2 cbr 210 ------- 3 1.0 2.0 67 68
r 0.511344 1 2 cbr 210 ------- 3 1.0 2.0 7 8
+ 0.511424 1 2 cbr 210 ------- 3 1.0 2.0 68 69
r 0.511512 1 2 cbr 210 ------- 3 1.0 2.0 8 9
+ 0.511592 1 2 cbr 210 ------- 3 1.0 2.0 69 70
r 0.51168 1 2 cbr 210 ------- 3 1.0 2.0 9 10
- 0.51172 1 2 cbr 210 ------- 3 1.0 2.0 65 66
+ 0.51176 1 2 cbr 210 ------- 3 1.0 2.0 70 71
r 0.511848 1 2 cbr 210 ------- 3 1.0 2.0 10 11
- 0.511888 1 2 cbr 210 ------- 3 1.0 2.0 66 67
+ 0.511928 1 2 cbr 210 ------- 3 1.0 2.0 71 72
r 0.512016 1 2 cbr 210 ------- 3 1.0 2.0 11 12
- 0.512056 1 2 cbr 210 ------- 3 1.0 2.0 67 68
+ 0.512096 1 2 cbr 210 ------- 3 1.0 2.0 72 73
r 0.512184 1 2 cbr 210 ------- 3 1.0 2.0 12 13
- 0.512224 1 2 cbr 210 ------- 3 1.0 2.0 68 69
+ 0.512264 1 2 cbr 210 ------- 3 1.0 2.0 73 74
r 0.512352 1 2 cbr 210 ------- 3 1.0 2.0 13 14
- 0.512392 1 2 cbr 210 ------- 3 1.0 2.0 69 70
+ 0.512432 1 2 cbr 210 ------- 3 1.0 2.0 74 75
r 0.51252 1 2 cbr 210 ------- 3 1.0 2.0 14 15
- 0.51256 1 2 cbr 210 ------- 3 1.0 2.0 70 71
+ 0.5126 1 2 cbr 210 ------- 3 1.0 2.0 75 76
r 0.512688 1 2 cbr 210 ------- 3 1.0 2.0 15 16
- 0.512728 1 2 cbr 210 ------- 3 1.0 2.0 71 72
+ 0.512768 1 2 cbr 210 ------- 3 1.0 2.0 76 77
r 0.512856 1 2 cbr 210 ------- 3 1.0 2.0 16 17
- 0.512896 1 2 cbr 210 ------- 3 1.0 2.0 72 73
+ 0.512936 1 2 cbr 210 ------- 3 1.0 2.0 77 78
r 0.513024 1 2 cbr 210 ------- 3 1.0 2.0 17 18
- 0.513064 1 2 cbr 210 ------- 3 1.0 2.0 73 74
+ 0.513104 1 2 cbr 210 ------- 3 1.0 2.0 78 79
r 0.513192 1 2 cbr 210 ------- 3 1.0 2.0 18 19
- 0.513232 1 2 cbr 210 ------- 3 1.0 2.0 74 75
+ 0.513272 1 2 cbr 210 ------- 3 1.0 2.0 79 80
r 0.51336 1 2 cbr 210 ------- 3 1.0 2.0 19 20
- 0.5134 1 2 cbr 210 ------- 3 1.0 2.0 75 76
+ 0.51344 1 2 cbr 210 ------- 3 1.0 2.0 80 81
r 0.513528 1 2 cbr 210 ------- 3 1.0 2.0 20 21
- 0.513568 1 2 cbr 210 ------- 3 1.0 2.0 76 77
+ 0.513608 1 2 cbr 210 ------- 3 1.0 2.0 81 82
r 0.513696 1 2 cbr 210 ------- 3 1.0 2.0 21 22
- 0.513736 1 2 cbr 210 ------- 3 1.0 2.0 77 78
+ 0.513776 1 2 cbr 210 ------- 3 1.0 2.0 82 83
r 0.513864 1 2 cbr 210 ------- 3 1.0 2.0 22 23
- 0.513904 1 2 cbr 210 ------- 3 1.0 2.0 78 79
+ 0.513944 1 2 cbr 210 ------- 3 1.0 2.0 83 84
r 0.514032 1 2 cbr 210 ------- 3 1.0 2.0 23 24
- 0.514072 1 2 cbr 210 ------- 3 1.0 2.0 79 80
+ 0.514112 1 2 cbr 210 ------- 3 1.0 2.0 84 85
r 0.5142 1 2 cbr 210 ------- 3 1.0 2.0 24 25
- 0.51424 1 2 cbr 210 ------- 3 1.0 2.0 80 81
+ 0.51428 1 2 cbr 210 ------- 3 1.0 2.0 85 86
r 0.514368 1 2 cbr 210 ------- 3 1.0 2.0 25 26
- 0.514408 1 2 cbr 210 ------- 3 1.0 2.0 81 82
+ 0.514448 1 2 cbr 210 ------- 3 1.0 2.0 86 87
r 0.514536 1 2 cbr 210 ------- 3 1.0 2.0 26 27
- 0.514576 1 2 cbr 210 ------- 3 1.0 2.0 82 83
+ 0.514616 1 2 cbr 210 ------- 3 1.0 2.0 87 88
r 0.514704 1 2 cbr 210 ------- 3 1.0 2.0 27 28
- 0.514744 1 2 cbr 210 ------- 3 1.0 2.0 83 84
+ 0.514784 1 2 cbr 210 ------- 3 1.0 2.0 88 89
r 0.514872 1 2 cbr 210 ------- 3 1.0 2.0 28 29
- 0.514912 1 2 cbr 210 ------- 3 1.0 2.0 84 85
+ 0.514952 1 2 cbr 210 ------- 3 1.0 2.0 89 90
r 0.51504 1 2 cbr 210 ------- 3 1.0 2.0 29 30
- 0.51508 1 2 cbr 210 ------- 3 1.0 2.0 85 86
+ 0.51512 1 2 cbr 210 ------- 3 1.0 2.0 90 91
r 0.515208 1 2 cbr 210 ------- 3 1.0 2.0 30 31
- 0.515248 1 2 cbr 210 ------- 3 1.0 2.0 86 87
+ 0.515288 1 2 cbr 210 ------- 3 1.0 2.0 91 92
r 0.515376 1 2 cbr 210 ------- 3 1.0 2.0 31 32
- 0.515416 1 2 cbr 210 ------- 3 1.0 2.0 87 88
+ 0.515456 1 2 cbr 210 ------- 3 1.0 2.0 92 93
r 0.515544 1 2 cbr 210 ------- 3 1.0 2.0 32 33
- 0.515584 1 2 cbr 210 ------- 3 1.0 2.0 88 89
+ 0.515624 1 2 cbr 210 ------- 3 1.0 2.0 93 94
r 0.515712 1 2 cbr 210 ------- 3 1.0 2.0 33 34
- 0.515752 1 2 cbr 210 ------- 3 1.0 2.0 89 90
+ 0.515792 1 2 cbr 210 ------- 3 1.0 2.0 94 95
r 0.51588 1 2 cbr 210 ------- 3 1.0 2.0 34 35
- 0.51592 1 2 cbr 210 ------- 3 1.0 2.0 90 91
+ 0.51596 1 2 cbr 210 ------- 3 1.0 2.0 95 96
r 0.516048 1 2 cbr 210 ------- 3 1.0 2.0 35 36
- 0.516088 1 2 cbr 210 ------- 3 1.0 2.0 91 92
+ 0.516128 1 2 cbr 210 ------- 3 1.0 2.0 96 97
r 0.516216 1 2 cbr 210 ------- 3 1.0 2.0 36 37
- 0.516256 1 2 cbr 210 ------- 3 1.0 2.0 92 93
+ 0.516296 1 2 cbr 210 ------- 3 1.0 2.0 97 98
r 0.516384 1 2 cbr 210 ------- 3 1.0 2.0 37 38
- 0.516424 1 2 cbr 210 ------- 3 1.0 2.0 93 94
+ 0.516464 1 2 cbr 210 ------- 3 1.0 2.0 98 99
r 0.516552 1 2 cbr 210 ------- 3 1.0 2.0 38 39
- 0.516592 1 2 cbr 210 ------- 3 1.0 2.0 94 95
+ 0.516632 1 2 cbr 210 ------- 3 1.0 2.0 99 100
r 0.51672 1 2 cbr 210 ------- 3 1.0 2.0 39 40
- 0.51676 1 2 cbr 210 ------- 3 1.0 2.0 95 96
+ 0.5168 1 2 cbr 210 ------- 3 1.0 2.0 100 101
r 0.516888 1 2 cbr 210 ------- 3 1.0 2.0 40 41
- 0.516928 1 2 cbr 210 ------- 3 1.0 2.0 96 97
+ 0.516968 1 2 cbr 210 ------- 3 1.0 2.0 101 102
r 0.517056 1 2 cbr 210 ------- 3 1.0 2.0 41 42
- 0.517096 1 2 cbr 210 ------- 3 1.0 2.0 97 98
+ 0.517136 1 2 cbr 210 ------- 3 1.0 2.0 102 103
r 0.517224 1 2 cbr 210 ------- 3 1.0 2.0 42 43
- 0.517264 1 2 cbr 210 ------- 3 1.0 2.0 98 99
+ 0.517304 1 2 cbr 210 ------- 3 1.0 2.0 103 104
r 0.517392 1 2 cbr 210 ------- 3 1.0 2.0 43 44
- 0.517432 1 2 cbr 210 ------- 3 1.0 2.0 99 100
+ 0.517472 1 2 cbr 210 ------- 3 1.0 2.0 104 105
r 0.51756 1 2 cbr 210 ------- 3 1.0 2.0 44 45
- 0.5176 1 2 cbr 210 ------- 3 1.0 2.0 100 101
+ 0.51764 1 2 cbr 210 ------- 3 1.0 2.0 105 106
r 0.517728 1 2 cbr 210 ------- 3 1.0 2.0 45 46
- 0.517768 1 2 cbr 210 ------- 3 1.0 2.0 101 102
+ 0.517808 1 2 cbr 210 ------- 3 1.0 2.0 106 107
r 0.517896 1 2 cbr 210 ------- 3 1.0 2.0 46 47
- 0.517936 1 2 cbr 210 ------- 3 1.0 2.0 102 103
+ 0.517976 1 2 cbr 210 ------- 3 1.0 2.0 107 108
r 0.518064 1 2 cbr 210 ------- 3 1.0 2.0 47 48
- 0.518104 1 2 cbr 210 ------- 3 1.0 2.0 103 104
+ 0.518144 1 2 cbr 210 ------- 3 1.0 2.0 108 109
r 0.518232 1 2 cbr 210 ------- 3 1.0 2.0 48 49
- 0.518272 1 2 cbr 210 ------- 3 1.0 2.0 104 105
+ 0.518312 1 2 cbr 210 ------- 3 1.0 2.0 109 110
r 0.5184 1 2 cbr 210 ------- 3 1.0 2.0 49 50
- 0.51844 1 2 cbr 210 ------- 3 1.0 2.0 105 106
+ 0.51848 1 2 cbr 210 ------- 3 1.0 2.0 110 111
r 0.518568 1 2 cbr 210 ------- 3 1.0 2.0 50 51
- 0.518608 1 2 cbr 210 ------- 3 1.0 2.0 106 107
+ 0.518648 1 2 cbr 210 ------- 3 1.0 2.0 111 112
r 0.518736 1 2 cbr 210 ------- 3 1.0 2.0 51 52
- 0.518776 1 2 cbr 210 ------- 3 1.0 2.0 107 108
+ 0.518816 1 2 cbr 210 ------- 3 1.0 2.0 112 113
r 0.518904 1 2 cbr 210 ------- 3 1.0 2.0 52 53
- 0.518944 1 2 cbr 210 ------- 3 1.0 2.0 108 109
+ 0.518984 1 2 cbr 210 ------- 3 1.0 2.0 113 114
r 0.519072 1 2 cbr 210 ------- 3 1.0 2.0 53 54
- 0.519112 1 2 cbr 210 ------- 3 1.0 2.0 109 110
+ 0.519152 1 2 cbr 210 ------- 3 1.0 2.0 114 115
r 0.51924 1 2 cbr 210 ------- 3 1.0 2.0 54 55
- 0.51928 1 2 cbr 210 ------- 3 1.0 2.0 110 111
+ 0.51932 1 2 cbr 210 ------- 3 1.0 2.0 115 116
r 0.519408 1 2 cbr 210 ------- 3 1.0 2.0 55 56
- 0.519448 1 2 cbr 210 ------- 3 1.0 2.0 111 112
+ 0.519488 1 2 cbr 210 ------- 3 1.0 2.0 116 117
r 0.519576 1 2 cbr 210 ------- 3 1.0 2.0 56 57
- 0.519616 1 2 cbr 210 ------- 3 1.0 2.0 112 113
+ 0.519656 1 2 cbr 210 ------- 3 1.0 2.0 117 118
r 0.519744 1 2 cbr 210 ------- 3 1.0 2.0 57 58
- 0.519784 1 2 cbr 210 ------- 3 1.0 2.0 113 114
+ 0.519824 1 2 cbr 210 ------- 3 1.0 2.0 118 119
r 0.519912 1 2 cbr 210 ------- 3 1.0 2.0 58 59
- 0.519952 1 2 cbr 210 ------- 3 1.0 2.0 114 115
+ 0.519992 1 2 cbr 210 ------- 3 1.0 2.0 119 120
r 0.52008 1 2 cbr 210 ------- 3 1.0 2.0 59 60
- 0.52012 1 2 cbr 210 ------- 3 1.0 2.0 115 116
+ 0.52016 1 2 cbr 210 ------- 3 1.0 2.0 120 121
r 0.520248 1 2 cbr 210 ------- 3 1.0 2.0 60 61
- 0.520288 1 2 cbr 210 ------- 3 1.0 2.0 116 117
+ 0.520328 1 2 cbr 210 ------- 3 1.0 2.0 121 122
r 0.520416 1 2 cbr 210 ------- 3 1.0 2.0 61 62
- 0.520456 1 2 cbr 210 ------- 3 1.0 2.0 117 118
+ 0.520496 1 2 cbr 210 ------- 3 1.0 2.0 122 123
r 0.520584 1 2 cbr 210 ------- 3 1.0 2.0 62 63
- 0.520624 1 2 cbr 210 ------- 3 1.0 2.0 118 119
+ 0.520664 1 2 cbr 210 ------- 3 1.0 2.0 123 124
r 0.520752 1 2 cbr 210 ------- 3 1.0 2.0 63 64
- 0.520792 1 2 cbr 210 ------- 3 1.0 2.0 119 120
+ 0.520832 1 2 cbr 210 ------- 3 1.0 2.0 124 125
r 0.52092 1 2 cbr 210 ------- 3 1.0 2.0 64 65
- 0.52096 1 2 cbr 210 ------- 3 1.0 2.0 120 121
+ 0.521 1 2 cbr 210 ------- 3 1.0 2.0 125 126
- 0.521128 1 2 cbr 210 ------- 3 1.0 2.0 121 122
+ 0.521168 1 2 cbr 210 ------- 3 1.0 2.0 126 127
- 0.521296 1 2 cbr 210 ------- 3 1.0 2.0 122 123
+ 0.521336 1 2 cbr 210 ------- 3 1.0 2.0 127 128
- 0.521464 1 2 cbr 210 ------- 3 1.0 2.0 123 124
+ 0.521504 1 2 cbr 210 ------- 3 1.0 2.0 128 129
- 0.521632 1 2 cbr 210 ------- 3 1.0 2.0 124 125
+ 0.521672 1 2 cbr 210 ------- 3 1.0 2.0 129 130
r 0.52172 1 2 tcp 1000 ------- 1 0.0 3.0 0 1
+ 0.52172 2 3 tcp 1000 ------- 1 0.0 3.0 0 1
- 0.52172 2 3 tcp 1000 ------- 1 0.0 3.0 0 1
- 0.5218 1 2 cbr 210 ------- 3 1.0 2.0 125 126
+ 0.52184 1 2 cbr 210 ------- 3 1.0 2.0 130 131
r 0.521888 1 2 cbr 210 ------- 3 1.0 2.0 65 66
- 0.521968 1 2 cbr 210 ------- 3 1.0 2.0 126 127
+ 0.522008 1 2 cbr 210 ------- 3 1.0 2.0 131 132
r 0.522056 1 2 cbr 210 ------- 3 1.0 2.0 66 67
- 0.522136 1 2 cbr 210 ------- 3 1.0 2.0 127 128
+ 0.522176 1 2 cbr 210 ------- 3 1.0 2.0 132 133
r 0.522224 1 2 cbr 210 ------- 3 1.0 2.0 67 68
- 0.522304 1 2 cbr 210 ------- 3 1.0 2.0 128 129
+ 0.522344 1 2 cbr 210 ------- 3 1.0 2.0 133 134
r 0.522392 1 2 cbr 210 ------- 3 1.0 2.0 68 69
- 0.522472 1 2 cbr 210 ------- 3 1.0 2.0 129 130
+ 0.522512 1 2 cbr 210 ------- 3 1.0 2.0 134 135
r 0.52256 1 2 cbr 210 ------- 3 1.0 2.0 69 70
- 0.52264 1 2 cbr 210 ------- 3 1.0 2.0 130 131
+ 0.52268 1 2 cbr 210 ------- 3 1.0 2.0 135 136
r 0.522728 1 2 cbr 210 ------- 3 1.0 2.0 70 71
- 0.522808 1 2 cbr 210 ------- 3 1.0 2.0 131 132
+ 0.522848 1 2 cbr 210 ------- 3 1.0 2.0 136 137
r 0.522896 1 2 cbr 210 ------- 3 1.0 2.0 71 72
- 0.522976 1 2 cbr 210 ------- 3 1.0 2.0 132 133
+ 0.523016 1 2 cbr 210 ------- 3 1.0 2.0 137 138
r 0.523064 1 2 cbr 210 ------- 3 1.0 2.0 72 73
- 0.523144 1 2 cbr 210 ------- 3 1.0 2.0 133 134
+ 0.523184 1 2 cbr 210 ------- 3 1.0 2.0 138 139
r 0.523232 1 2 cbr 210 ------- 3 1.0 2.0 73 74
- 0.523312 1 2 cbr 210 ------- 3 1.0 2.0 134 135
+ 0.523352 1 2 cbr 210 ------- 3 1.0 2.0 139 140
r 0.5234 1 2 cbr 210 ------- 3 1.0 2.0 74 75
- 0.52348 1 2 cbr 210 ------- 3 1.0 2.0 135 136
+ 0.52352 1 2 cbr 210 ------- 3 1.0 2.0 140 141
r 0.523568 1 2 cbr 210 ------- 3 1.0 2.0 75 76
- 0.523648 1 2 cbr 210 ------- 3 1.0 2.0 136 137
+ 0.523688 1 2 cbr 210 ------- 3 1.0 2.0 141 142
r 0.523736 1 2 cbr 210 ------- 3 1.0 2.0 76 77
- 0.523816 1 2 cbr 210 ------- 3 1.0 2.0 137 138
+ 0.523856 1 2 cbr 210 ------- 3 1.0 2.0 142 143
r 0.523904 1 2 cbr 210 ------- 3 1.0 2.0 77 78
- 0.523984 1 2 cbr 210 ------- 3 1.0 2.0 138 139
+ 0.524024 1 2 cbr 210 ------- 3 1.0 2.0 143 144
r 0.524072 1 2 cbr 210 ------- 3 1.0 2.0 78 79
- 0.524152 1 2 cbr 210 ------- 3 1.0 2.0 139 140
+ 0.524192 1 2 cbr 210 ------- 3 1.0 2.0 144 145
r 0.52424 1 2 cbr 210 ------- 3 1.0 2.0 79 80
- 0.52432 1 2 cbr 210 ------- 3 1.0 2.0 140 141
+ 0.52436 1 2 cbr 210 ------- 3 1.0 2.0 145 146
r 0.524408 1 2 cbr 210 ------- 3 1.0 2.0 80 81
- 0.524488 1 2 cbr 210 ------- 3 1.0 2.0 141 142
+ 0.524528 1 2 cbr 210 ------- 3 1.0 2.0 146 147
r 0.524576 1 2 cbr 210 ------- 3 1.0 2.0 81 82
- 0.524656 1 2 cbr 210 ------- 3 1.0 2.0 142 143
+ 0.524696 1 2 cbr 210 ------- 3 1.0 2.0 147 148
r 0.524744 1 2 cbr 210 ------- 3 1.0 2.0 82 83
- 0.524824 1 2 cbr 210 ------- 3 1.0 2.0 143 144
+ 0.524864 1 2 cbr 210 ------- 3 1.0 2.0 148 149
r 0.524912 1 2 cbr 210 ------- 3 1.0 2.0 83 84
- 0.524992 1 2 cbr 210 ------- 3 1.0 2.0 144 145
+ 0.525032 1 2 cbr 210 ------- 3 1.0 2.0 149 150
r 0.52508 1 2 cbr 210 ------- 3 1.0 2.0 84 85
- 0.52516 1 2 cbr 210 ------- 3 1.0 2.0 145 146
+ 0.5252 1 2 cbr 210 ------- 3 1.0 2.0 150 151
r 0.525248 1 2 cbr 210 ------- 3 1.0 2.0 85 86
- 0.525328 1 2 cbr 210 ------- 3 1.0 2.0 146 147
+ 0.525368 1 2 cbr 210 ------- 3 1.0 2.0 151 152
r 0.525416 1 2 cbr 210 ------- 3 1.0 2.0 86 87
- 0.525496 1 2 cbr 210 ------- 3 1.0 2.0 147 148
+ 0.525536 1 2 cbr 210 ------- 3 1.0 2.0 152 153
r 0.525584 1 2 cbr 210 ------- 3 1.0 2.0 87 88
- 0.525664 1 2 cbr 210 ------- 3 1.0 2.0 148 149
+ 0.525704 1 2 cbr 210 ------- 3 1.0 2.0 153 154
r 0.525752 1 2 cbr 210 ------- 3 1.0 2.0 88 89
- 0.525832 1 2 cbr 210 ------- 3 1.0 2.0 149 150
+ 0.525872 1 2 cbr 210 ------- 3 1.0 2.0 154 155
r 0.52592 1 2 cbr 210 ------- 3 1.0 2.0 89 90
- 0.526 1 2 cbr 210 ------- 3 1.0 2.0 150 151
+ 0.52604 1 2 cbr 210 ------- 3 1.0 2.0 155 156
r 0.526088 1 2 cbr 210 ------- 3 1.0 2.0 90 91
- 0.526168 1 2 cbr 210 ------- 3 1.0 2.0 151 152
+ 0.526208 1 2 cbr 210 ------- 3 1.0 2.0 156 157
r 0.526256 1 2 cbr 210 ------- 3 1.0 2.0 91 92
- 0.526336 1 2 cbr 210 ------- 3 1.0 2.0 152 153
+ 0.526376 1 2 cbr 210 ------- 3 1.0 2.0 157 158
r 0.526424 1 2 cbr 210 ------- 3 1.0 2.0 92 93
- 0.526504 1 2 cbr 210 ------- 3 1.0 2.0 153 154
+ 0.526544 1 2 cbr 210 ------- 3 1.0 2.0 158 159
r 0.526592 1 2 cbr 210 ------- 3 1.0 2.0 93 94
- 0.526672 1 2 cbr 210 ------- 3 1.0 2.0 154 155
+ 0.526712 1 2 cbr 210 ------- 3 1.0 2.0 159 160
r 0.52676 1 2 cbr 210 ------- 3 1.0 2.0 94 95
- 0.52684 1 2 cbr 210 ------- 3 1.0 2.0 155 156
+ 0.52688 1 2 cbr 210 ------- 3 1.0 2.0 160 161
r 0.526928 1 2 cbr 210 ------- 3 1.0 2.0 95 96
- 0.527008 1 2 cbr 210 ------- 3 1.0 2.0 156 157
+ 0.527048 1 2 cbr 210 ------- 3 1.0 2.0 161 162
r 0.527096 1 2 cbr 210 ------- 3 1.0 2.0 96 97
- 0.527176 1 2 cbr 210 ------- 3 1.0 2.0 157 158
+ 0.527216 1 2 cbr 210 ------- 3 1.0 2.0 162 163
r 0.527264 1 2 cbr 210 ------- 3 1.0 2.0 97 98
- 0.527344 1 2 cbr 210 ------- 3 1.0 2.0 158 159
+ 0.527384 1 2 cbr 210 ------- 3 1.0 2.0 163 164
r 0.527432 1 2 cbr 210 ------- 3 1.0 2.0 98 99
- 0.527512 1 2 cbr 210 ------- 3 1.0 2.0 159 160
+ 0.527552 1 2 cbr 210 ------- 3 1.0 2.0 164 165
r 0.5276 1 2 cbr 210 ------- 3 1.0 2.0 99 100
- 0.52768 1 2 cbr 210 ------- 3 1.0 2.0 160 161
+ 0.52772 1 2 cbr 210 ------- 3 1.0 2.0 165 166
r 0.527768 1 2 cbr 210 ------- 3 1.0 2.0 100 101
- 0.527848 1 2 cbr 210 ------- 3 1.0 2.0 161 162
+ 0.527888 1 2 cbr 210 ------- 3 1.0 2.0 166 167
r 0.527936 1 2 cbr 210 ------- 3 1.0 2.0 101 102
- 0.528016 1 2 cbr 210 ------- 3 1.0 2.0 162 163
+ 0.528056 1 2 cbr 210 ------- 3 1.0 2.0 167 168
r 0.528104 1 2 cbr 210 ------- 3 1.0 2.0 102 103
- 0.528184 1 2 cbr 210 ------- 3 1.0 2.0 163 164
+ 0.528224 1 2 cbr 210 ------- 3 1.0 2.0 168 169
r 0.528272 1 2 cbr 210 ------- 3 1.0 2.0 103 104
- 0.528352 1 2 cbr 210 ------- 3 1.0 2.0 164 165
+ 0.528392 1 2 cbr 210 ------- 3 1.0 2.0 169 170
r 0.52844 1 2 cbr 210 ------- 3 1.0 2.0 104 105
- 0.52852 1 2 cbr 210 ------- 3 1.0 2.0 165 166
+ 0.52856 1 2 cbr 210 ------- 3 1.0 2.0 170 171
r 0.528608 1 2 cbr 210 ------- 3 1.0 2.0 105 106
- 0.528688 1 2 cbr 210 ------- 3 1.0 2.0 166 167
+ 0.528728 1 2 cbr 210 ------- 3 1.0 2.0 171 172
r 0.528776 1 2 cbr 210 ------- 3 1.0 2.0 106 107
- 0.528856 1 2 cbr 210 ------- 3 1.0 2.0 167 168
+ 0.528896 1 2 cbr 210 ------- 3 1.0 2.0 172 173
r 0.528944 1 2 cbr 210 ------- 3 1.0 2.0 107 108
- 0.529024 1 2 cbr 210 ------- 3 1.0 2.0 168 169
+ 0.529064 1 2 cbr 210 ------- 3 1.0 2.0 173 174
r 0.529112 1 2 cbr 210 ------- 3 1.0 2.0 108 109
- 0.529192 1 2 cbr 210 ------- 3 1.0 2.0 169 170
+ 0.529232 1 2 cbr 210 ------- 3 1.0 2.0 174 175
r 0.52928 1 2 cbr 210 ------- 3 1.0 2.0 109 110
- 0.52936 1 2 cbr 210 ------- 3 1.0 2.0 170 171
+ 0.5294 1 2 cbr 210 ------- 3 1.0 2.0 175 176
r 0.529448 1 2 cbr 210 ------- 3 1.0 2.0 110 111
- 0.529528 1 2 cbr 210 ------- 3 1.0 2.0 171 172
+ 0.529568 1 2 cbr 210 ------- 3 1.0 2.0 176 177
r 0.529616 1 2 cbr 210 ------- 3 1.0 2.0 111 112
- 0.529696 1 2 cbr 210 ------- 3 1.0 2.0 172 173
+ 0.529736 1 2 cbr 210 ------- 3 1.0 2.0 177 178
r 0.529784 1 2 cbr 210 ------- 3 1.0 2.0 112 113
- 0.529864 1 2 cbr 210 ------- 3 1.0 2.0 173 174
+ 0.529904 1 2 cbr 210 ------- 3 1.0 2.0 178 179
r 0.529952 1 2 cbr 210 ------- 3 1.0 2.0 113 114
- 0.530032 1 2 cbr 210 ------- 3 1.0 2.0 174 175
+ 0.530072 1 2 cbr 210 ------- 3 1.0 2.0 179 180
r 0.53012 1 2 cbr 210 ------- 3 1.0 2.0 114 115
- 0.5302 1 2 cbr 210 ------- 3 1.0 2.0 175 176
+ 0.53024 1 2 cbr 210 ------- 3 1.0 2.0 180 181
r 0.530288 1 2 cbr 210 ------- 3 1.0 2.0 115 116
- 0.530368 1 2 cbr 210 ------- 3 1.0 2.0 176 177
+ 0.530408 1 2 cbr 210 ------- 3 1.0 2.0 181 182
r 0.530456 1 2 cbr 210 ------- 3 1.0 2.0 116 117
- 0.530536 1 2 cbr 210 ------- 3 1.0 2.0 177 178
+ 0.530576 1 2 cbr 210 ------- 3 1.0 2.0 182 183
r 0.530624 1 2 cbr 210 ------- 3 1.0 2.0 117 118
- 0.530704 1 2 cbr 210 ------- 3 1.0 2.0 178 179
+ 0.530744 1 2 cbr 210 ------- 3 1.0 2.0 183 184
r 0.530792 1 2 cbr 210 ------- 3 1.0 2.0 118 119
- 0.530872 1 2 cbr 210 ------- 3 1.0 2.0 179 180
+ 0.530912 1 2 cbr 210 ------- 3 1.0 2.0 184 185
r 0.53096 1 2 cbr 210 ------- 3 1.0 2.0 119 120
- 0.53104 1 2 cbr 210 ------- 3 1.0 2.0 180 181
+ 0.53108 1 2 cbr 210 ------- 3 1.0 2.0 185 186
r 0.531128 1 2 cbr 210 ------- 3 1.0 2.0 120 121
- 0.531208 1 2 cbr 210 ------- 3 1.0 2.0 181 182
+ 0.531248 1 2 cbr 210 ------- 3 1.0 2.0 186 187
r 0.531296 1 2 cbr 210 ------- 3 1.0 2.0 121 122
- 0.531376 1 2 cbr 210 ------- 3 1.0 2.0 182 183
+ 0.531416 1 2 cbr 210 ------- 3 1.0 2.0 187 188
r 0.531464 1 2 cbr 210 ------- 3 1.0 2.0 122 123
- 0.531544 1 2 cbr 210 ------- 3 1.0 2.0 183 184
+ 0.531584 1 2 cbr 210 ------- 3 1.0 2.0 188 189
r 0.531632 1 2 cbr 210 ------- 3 1.0 2.0 123 124
- 0.531712 1 2 cbr 210 ------- 3 1.0 2.0 184 185
+ 0.531752 1 2 cbr 210 ------- 3 1.0 2.0 189 190
r 0.5318 1 2 cbr 210 ------- 3 1.0 2.0 124 125
- 0.53188 1 2 cbr 210 ------- 3 1.0 2.0 185 186
+ 0.53192 1 2 cbr 210 ------- 3 1.0 2.0 190 191
r 0.531968 1 2 cbr 210 ------- 3 1.0 2.0 125 126
- 0.532048 1 2 cbr 210 ------- 3 1.0 2.0 186 187
+ 0.532088 1 2 cbr 210 ------- 3 1.0 2.0 191 192
r 0.532136 1 2 cbr 210 ------- 3 1.0 2.0 126 127
- 0.532216 1 2 cbr 210 ------- 3 1.0 2.0 187 188
+ 0.532256 1 2 cbr 210 ------- 3 1.0 2.0 192 193
r 0.532304 1 2 cbr 210 ------- 3 1.0 2.0 127 128
- 0.532384 1 2 cbr 210 ------- 3 1.0 2.0 188 189
+ 0.532424 1 2 cbr 210 ------- 3 1.0 2.0 193 194
r 0.532472 1 2 cbr 210 ------- 3 1.0 2.0 128 129
r 0.53252 2 3 tcp 1000 ------- 1 0.0 3.0 0 1
+ 0.53252 3 2 ack 40 ------- 1 3.0 0.0 0 195
- 0.53252 3 2 ack 40 ------- 1 3.0 0.0 0 195
- 0.532552 1 2 cbr 210 ------- 3 1.0 2.0 189 190
+ 0.532592 1 2 cbr 210 ------- 3 1.0 2.0 194 196
r 0.53264 1 2 cbr 210 ------- 3 1.0 2.0 129 130
- 0.53272 1 2 cbr 210 ------- 3 1.0 2.0 190 191
+ 0.53276 1 2 cbr 210 ------- 3 1.0 2.0 195 197
r 0.532808 1 2 cbr 210 ------- 3 1.0 2.0 130 131
- 0.532888 1 2 cbr 210 ------- 3 1.0 2.0 191 192
+ 0.532928 1 2 cbr 210 ------- 3 1.0 2.0 196 198
r 0.532976 1 2 cbr 210 ------- 3 1.0 2.0 131 132
- 0.533056 1 2 cbr 210 ------- 3 1.0 2.0 192 193
+ 0.533096 1 2 cbr 210 ------- 3 1.0 2.0 197 199
r 0.533144 1 2 cbr 210 ------- 3 1.0 2.0 132 133
- 0.533224 1 2 cbr 210 ------- 3 1.0 2.0 193 194
+ 0.533264 1 2 cbr 210 ------- 3 1.0 2.0 198 200
r 0.533312 1 2 cbr 210 ------- 3 1.0 2.0 133 134
- 0.533392 1 2 cbr 210 ------- 3 1.0 2.0 194 196
+ 0.533432 1 2 cbr 210 ------- 3 1.0 2.0 199 201
r 0.53348 1 2 cbr 210 ------- 3 1.0 2.0 134 135
- 0.53356 1 2 cbr 210 ------- 3 1.0 2.0 195 197
+ 0.5336 1 2 cbr 210 ------- 3 1.0 2.0 200 202
r 0.533648 1 2 cbr 210 ------- 3 1.0 2.0 135 136
- 0.533728 1 2 cbr 210 ------- 3 1.0 2.0 196 198
+ 0.533768 1 2 cbr 210 ------- 3 1.0 2.0 201 203
r 0.533816 1 2 cbr 210 ------- 3 1.0 2.0 136 137
- 0.533896 1 2 cbr 210 ------- 3 1.0 2.0 197 199
+ 0.533936 1 2 cbr 210 ------- 3 1.0 2.0 202 204
r 0.533984 1 2 cbr 210 ------- 3 1.0 2.0 137 138
- 0.534064 1 2 cbr 210 ------- 3 1.0 2.0 198 200
+ 0.534104 1 2 cbr 210 ------- 3 1.0 2.0 203 205
r 0.534152 1 2 cbr 210 ------- 3 1.0 2.0 138 139
- 0.534232 1 2 cbr 210 ------- 3 1.0 2.0 199 201
+ 0.534272 1 2 cbr 210 ------- 3 1.0 2.0 204 206
r 0.53432 1 2 cbr 210 ------- 3 1.0 2.0 139 140
- 0.5344 1 2 cbr 210 ------- 3 1.0 2.0 200 202
+ 0.53444 1 2 cbr 210 ------- 3 1.0 2.0 205 207
r 0.534488 1 2 cbr 210 ------- 3 1.0 2.0 140 141
- 0.534568 1 2 cbr 210 ------- 3 1.0 2.0 201 203
+ 0.534608 1 2 cbr 210 ------- 3 1.0 2.0 206 208
r 0.534656 1 2 cbr 210 ------- 3 1.0 2.0 141 142
- 0.534736 1 2 cbr 210 ------- 3 1.0 2.0 202 204
+ 0.534776 1 2 cbr 210 ------- 3 1.0 2.0 207 209
r 0.534824 1 2 cbr 210 ------- 3 1.0 2.0 142 143
- 0.534904 1 2 cbr 210 ------- 3 1.0 2.0 203 205
+ 0.534944 1 2 cbr 210 ------- 3 1.0 2.0 208 210
r 0.534992 1 2 cbr 210 ------- 3 1.0 2.0 143 144
- 0.535072 1 2 cbr 210 ------- 3 1.0 2.0 204 206
+ 0.535112 1 2 cbr 210 ------- 3 1.0 2.0 209 211
r 0.53516 1 2 cbr 210 ------- 3 1.0 2.0 144 145
- 0.53524 1 2 cbr 210 ------- 3 1.0 2.0 205 207
+ 0.53528 1 2 cbr 210 ------- 3 1.0 2.0 210 212
r 0.535328 1 2 cbr 210 ------- 3 1.0 2.0 145 146
- 0.535408 1 2 cbr 210 ------- 3 1.0 2.0 206 208
+ 0.535448 1 2 cbr 210 ------- 3 1.0 2.0 211 213
r 0.535496 1 2 cbr 210 ------- 3 1.0 2.0 146 147
- 0.535576 1 2 cbr 210 ------- 3 1.0 2.0 207 209
+ 0.535616 1 2 cbr 210 ------- 3 1.0 2.0 212 214
r 0.535664 1 2 cbr 210 ------- 3 1.0 2.0 147 148
- 0.535744 1 2 cbr 210 ------- 3 1.0 2.0 208 210
+ 0.535784 1 2 cbr 210 ------- 3 1.0 2.0 213 215
r 0.535832 1 2 cbr 210 ------- 3 1.0 2.0 148 149
- 0.535912 1 2 cbr 210 ------- 3 1.0 2.0 209 211
+ 0.535952 1 2 cbr 210 ------- 3 1.0 2.0 214 216
r 0.536 1 2 cbr 210 ------- 3 1.0 2.0 149 150
- 0.53608 1 2 cbr 210 ------- 3 1.0 2.0 210 212
+ 0.53612 1 2 cbr 210 ------- 3 1.0 2.0 215 217
r 0.536168 1 2 cbr 210 ------- 3 1.0 2.0 150 151
- 0.536248 1 2 cbr 210 ------- 3 1.0 2.0 211 213
+ 0.536288 1 2 cbr 210 ------- 3 1.0 2.0 216 218
r 0.536336 1 2 cbr 210 ------- 3 1.0 2.0 151 152
- 0.536416 1 2 cbr 210 ------- 3 1.0 2.0 212 214
+ 0.536456 1 2 cbr 210 ------- 3 1.0 2.0 217 219
r 0.536504 1 2 cbr 210 ------- 3 1.0 2.0 152 153
- 0.536584 1 2 cbr 210 ------- 3 1.0 2.0 213 215
+ 0.536624 1 2 cbr 210 ------- 3 1.0 2.0 218 220
r 0.536672 1 2 cbr 210 ------- 3 1.0 2.0 153 154
- 0.536752 1 2 cbr 210 ------- 3 1.0 2.0 214 216
+ 0.536792 1 2 cbr 210 ------- 3 1.0 2.0 219 221
r 0.53684 1 2 cbr 210 ------- 3 1.0 2.0 154 155
- 0.53692 1 2 cbr 210 ------- 3 1.0 2.0 215 217
+ 0.53696 1 2 cbr 210 ------- 3 1.0 2.0 220 222
r 0.537008 1 2 cbr 210 ------- 3 1.0 2.0 155 156
- 0.537088 1 2 cbr 210 ------- 3 1.0 2.0 216 218
+ 0.537128 1 2 cbr 210 ------- 3 1.0 2.0 221 223
r 0.537176 1 2 cbr 210 ------- 3 1.0 2.0 156 157
- 0.537256 1 2 cbr 210 ------- 3 1.0 2.0 217 219
+ 0.537296 1 2 cbr 210 ------- 3 1.0 2.0 222 224
r 0.537344 1 2 cbr 210 ------- 3 1.0 2.0 157 158
- 0.537424 1 2 cbr 210 ------- 3 1.0 2.0 218 220
+ 0.537464 1 2 cbr 210 ------- 3 1.0 2.0 223 225
r 0.537512 1 2 cbr 210 ------- 3 1.0 2.0 158 159
- 0.537592 1 2 cbr 210 ------- 3 1.0 2.0 219 221
+ 0.537632 1 2 cbr 210 ------- 3 1.0 2.0 224 226
r 0.53768 1 2 cbr 210 ------- 3 1.0 2.0 159 160
- 0.53776 1 2 cbr 210 ------- 3 1.0 2.0 220 222
+ 0.5378 1 2 cbr 210 ------- 3 1.0 2.0 225 227
r 0.537848 1 2 cbr 210 ------- 3 1.0 2.0 160 161
- 0.537928 1 2 cbr 210 ------- 3 1.0 2.0 221 223
+ 0.537968 1 2 cbr 210 ------- 3 1.0 2.0 226 228
r 0.538016 1 2 cbr 210 ------- 3 1.0 2.0 161 162
- 0.538096 1 2 cbr 210 ------- 3 1.0 2.0 222 224
+ 0.538136 1 2 cbr 210 ------- 3 1.0 2.0 227 229
r 0.538184 1 2 cbr 210 ------- 3 1.0 2.0 162 163
- 0.538264 1 2 cbr 210 ------- 3 1.0 2.0 223 225
+ 0.538304 1 2 cbr 210 ------- 3 1.0 2.0 228 230
r 0.538352 1 2 cbr 210 ------- 3 1.0 2.0 163 164
- 0.538432 1 2 cbr 210 ------- 3 1.0 2.0 224 226